 &FCI NORB=9 ,NELEC=7 ,MS2=1,
  ORBSYM=1,1,1,1,1,1,1,1,1,
  ISYM=1,
 &END
  6.521867943109e-01    1  1  1  1
  2.994067264160e-02    2  1  2  1
  5.799875060517e-01    2  2  1  1
  6.293813082355e-01    2  2  2  2
  2.994067264455e-02    3  1  3  1
  2.821511113767e-02    3  2  3  2
  5.799875060524e-01    3  3  1  1
  5.729510852101e-01    3  3  2  2
  6.293813082350e-01    3  3  3  3
  2.360866521403e-02    4  1  1  1
  1.848234300028e-02    4  1  2  2
  1.848234299888e-02    4  1  3  3
  3.809544801731e-03    4  1  4  1
 -1.562457921301e-05    4  2  2  1
  4.750372477834e-08    4  2  3  1
  1.666200725477e-03    4  2  4  2
 -4.750426091096e-08    4  3  2  1
 -1.562457761561e-05    4  3  3  1
  1.666200723755e-03    4  3  4  3
  2.130023254858e-01    4  4  1  1
  1.983467307269e-01    4  4  2  2
  1.983467307232e-01    4  4  3  3
 -8.398288859440e-04    4  4  4  1
  2.488708548655e-01    4  4  4  4
  1.705677028273e-06    5  1  2  1
 -1.153067376108e-02    5  1  3  1
  9.573267307053e-08    5  1  4  2
 -7.661370817623e-04    5  1  4  3
  1.358395010176e-02    5  1  5  1
  1.937683200278e-05    5  2  1  1
  2.461468264006e-05    5  2  2  2
 -1.169201840867e-02    5  2  3  2
  2.098997925876e-05    5  2  3  3
  5.055947757077e-07    5  2  4  1
 -3.617370751694e-06    5  2  4  4
  1.324513209903e-02    5  2  5  2
 -1.503634852304e-01    5  3  1  1
 -1.620978857484e-01    5  3  2  2
  1.812350706512e-06    5  3  3  2
 -1.854819073936e-01    5  3  3  3
 -4.111303470611e-03    5  3  4  1
  2.413070571962e-02    5  3  4  4
 -1.811394507977e-05    5  3  5  2
  1.537341803523e-01    5  3  5  3
  3.143325964481e-07    5  4  2  1
 -2.668082994138e-03    5  4  3  1
 -4.058817124878e-07    5  4  4  2
  2.541438702370e-03    5  4  4  3
 -8.861334681559e-05    5  4  5  1
  5.251203801659e-03    5  4  5  4
  5.048033032112e-01    5  5  1  1
  4.788796216198e-01    5  5  2  2
 -4.326903227741e-06    5  5  3  2
  5.142449887758e-01    5  5  3  3
  1.773263588301e-02    5  5  4  1
  2.331256080282e-01    5  5  4  4
  1.175763601918e-05    5  5  5  2
 -9.811490169649e-02    5  5  5  3
  4.944551255713e-01    5  5  5  5
 -1.153067376383e-02    6  1  2  1
 -1.705677962111e-06    6  1  3  1
 -7.661370819791e-04    6  1  4  2
 -9.573274989147e-08    6  1  4  3
  4.165644253446e-08    6  1  5  4
  1.358395009949e-02    6  1  6  1
 -1.503634852287e-01    6  2  1  1
 -1.854819073940e-01    6  2  2  2
 -1.812351053803e-06    6  2  3  2
 -1.620978857467e-01    6  2  3  3
 -4.111303468264e-03    6  2  4  1
  2.413070572374e-02    6  2  4  4
 -1.811394436249e-05    6  2  5  2
  1.272438973379e-01    6  2  5  3
 -8.772485357301e-02    6  2  5  5
  1.537341803507e-01    6  2  6  2
 -1.937683166965e-05    6  3  1  1
 -2.098997922958e-05    6  3  2  2
 -1.169201840863e-02    6  3  3  2
 -2.461468260409e-05    6  3  3  3
 -5.055940171663e-07    6  3  4  1
  3.617372031354e-06    6  3  4  4
  1.324512737457e-02    6  3  5  2
  1.811394419168e-05    6  3  5  3
 -1.099676662370e-05    6  3  5  5
  1.811394488119e-05    6  3  6  2
  1.324513209903e-02    6  3  6  3
 -2.668082995900e-03    6  4  2  1
 -3.143331909658e-07    6  4  3  1
  2.541438705680e-03    6  4  4  2
  4.058828174684e-07    6  4  4  3
 -4.165637680129e-08    6  4  5  1
 -8.861334661556e-05    6  4  6  1
  5.251203807425e-03    6  4  6  4
 -4.326903799524e-06    6  5  2  2
  1.768266538686e-02    6  5  3  2
  4.326903928528e-06    6  5  3  3
  1.310610446253e-12    6  5  4  4
 -5.195052583090e-03    6  5  5  2
 -3.804314079544e-07    6  5  5  3
  8.557274876522e-12    6  5  5  5
  3.804308866874e-07    6  5  6  2
 -5.195052583044e-03    6  5  6  3
  1.720811714369e-02    6  5  6  5
  5.048033032130e-01    6  6  1  1
  5.142449887736e-01    6  6  2  2
  4.326902710406e-06    6  6  3  2
  4.788796216206e-01    6  6  3  3
  1.773263588738e-02    6  6  4  1
  2.331256080370e-01    6  6  4  4
  1.099676628189e-05    6  6  5  2
 -8.772485357282e-02    6  6  5  3
  4.600387769923e-01    6  6  5  5
 -9.811490169672e-02    6  6  6  2
 -1.175763636410e-05    6  6  6  3
 -8.920242982937e-12    6  6  6  5
  4.944551255697e-01    6  6  6  6
 -2.122173854781e-02    7  1  1  1
  7.868354068235e-03    7  1  2  2
  7.868354063925e-03    7  1  3  3
 -7.418622153547e-03    7  1  4  1
 -2.886524303729e-02    7  1  4  4
  4.867906982221e-06    7  1  5  2
 -3.449746836618e-02    7  1  5  3
 -2.659102361762e-02    7  1  5  5
 -3.449746837471e-02    7  1  6  2
 -4.867909723367e-06    7  1  6  3
 -2.628878857137e-12    7  1  6  5
 -2.659102363423e-02    7  1  6  6
  1.037699324747e-01    7  1  7  1
  8.028727261127e-03    7  2  2  1
  5.917192128972e-08    7  2  3  1
 -1.617589036702e-03    7  2  4  2
 -8.974798525863e-08    7  2  4  3
  1.849190978312e-07    7  2  5  1
  6.012027508120e-07    7  2  5  4
 -2.424507850458e-04    7  2  6  1
 -5.176119351786e-03    7  2  6  4
  3.338624269840e-02    7  2  7  2
 -5.916016895773e-08    7  3  2  1
  8.028727227411e-03    7  3  3  1
  8.974199000037e-08    7  3  4  2
 -1.617589019128e-03    7  3  4  3
 -2.424508019964e-04    7  3  5  1
 -5.176119317280e-03    7  3  5  4
 -1.849133373004e-07    7  3  6  1
 -6.012146062346e-07    7  3  6  4
  3.324957430775e-11    7  3  7  2
  3.338624250640e-02    7  3  7  3
 -2.723778782811e-02    7  4  1  1
 -2.386210761519e-02    7  4  2  2
 -6.449505805040e-12    7  4  3  2
 -2.386210757676e-02    7  4  3  3
 -3.294129731389e-03    7  4  4  1
  3.158371180275e-03    7  4  4  4
 -4.664146469203e-07    7  4  5  2
  3.187429837687e-03    7  4  5  3
 -2.091366014971e-02    7  4  5  5
  3.187429802816e-03    7  4  6  2
  4.664029617864e-07    7  4  6  3
 -1.089129304275e-11    7  4  6  5
 -2.091366021474e-02    7  4  6  6
  3.334386453026e-03    7  4  7  1
  4.288779313568e-03    7  4  7  4
  4.345326178080e-07    7  5  2  1
 -1.878564675143e-03    7  5  3  1
  1.920538259195e-07    7  5  4  2
 -1.696292908923e-03    7  5  4  3
  3.926849974100e-04    7  5  5  1
 -1.586302188047e-03    7  5  5  4
  2.601580985960e-08    7  5  6  1
 -9.989149268850e-08    7  5  6  4
  1.249123029536e-06    7  5  7  2
 -5.207768092703e-03    7  5  7  3
  8.444761199583e-03    7  5  7  5
 -1.878564639041e-03    7  6  2  1
 -4.345201870170e-07    7  6  3  1
 -1.696292932357e-03    7  6  4  2
 -1.920618118480e-07    7  6  4  3
 -2.600989719616e-08    7  6  5  1
  9.987767400600e-08    7  6  5  4
  3.926850151219e-04    7  6  6  1
 -1.586302228615e-03    7  6  6  4
 -5.207768046480e-03    7  6  7  2
 -1.249107333157e-06    7  6  7  3
  9.011898961719e-12    7  6  7  5
  8.444761251787e-03    7  6  7  6
  5.717706079286e-01    7  7  1  1
  5.337961187467e-01    7  7  2  2
  1.950667642315e-11    7  7  3  2
  5.337961186340e-01    7  7  3  3
  1.693921885872e-02    7  7  4  1
  1.953045341034e-01    7  7  4  4
  1.686380762466e-05    7  7  5  2
 -1.255188163442e-01    7  7  5  3
  4.480686878470e-01    7  7  5  5
 -1.255188163319e-01    7  7  6  2
 -1.686380373855e-05    7  7  6  3
  1.587478248131e-11    7  7  6  5
  4.480686879391e-01    7  7  6  6
  3.085132879961e-02    7  7  7  1
 -2.526590136727e-02    7  7  7  4
  5.672389731272e-01    7  7  7  7
 -1.899073764309e-01    8  1  1  1
 -1.723170982431e-01    8  1  2  2
 -1.723170982434e-01    8  1  3  3
 -7.922028295444e-03    8  1  4  1
  2.839812572567e-02    8  1  4  4
 -1.721145090315e-05    8  1  5  2
  1.323474281130e-01    8  1  5  3
 -8.806299134056e-02    8  1  5  5
  1.323474281119e-01    8  1  6  2
  1.721145060466e-05    8  1  6  3
 -8.806299133938e-02    8  1  6  6
 -5.396565654907e-03    8  1  7  1
  7.454065831310e-03    8  1  7  4
 -1.358158725419e-01    8  1  7  7
  1.844077315117e-01    8  1  8  1
 -1.156692515043e-02    8  2  2  1
 -1.297051361348e-07    8  2  3  1
 -1.774219416384e-03    8  2  4  2
 -1.988264351542e-08    8  2  4  3
 -1.521865027470e-06    8  2  5  1
  1.748051471744e-07    8  2  5  4
  1.218968662766e-02    8  2  6  1
 -1.272028098581e-03    8  2  6  4
  3.912452019385e-03    8  2  7  2
 -5.442000892602e-08    8  2  7  3
  4.008000792687e-08    8  2  7  5
  6.419708686991e-04    8  2  7  6
  1.513624689614e-02    8  2  8  2
  1.297074400721e-07    8  3  2  1
 -1.156692515669e-02    8  3  3  1
  1.988150208124e-08    8  3  4  2
 -1.774219413118e-03    8  3  4  3
  1.218968662611e-02    8  3  5  1
 -1.272028090341e-03    8  3  5  4
  1.521865613165e-06    8  3  6  1
 -1.748080440291e-07    8  3  6  4
  5.443328373861e-08    8  3  7  2
  3.912451982041e-03    8  3  7  3
  6.419708406317e-04    8  3  7  5
 -4.007032463282e-08    8  3  7  6
  1.240077777013e-12    8  3  8  2
  1.513624688933e-02    8  3  8  3
 -4.329036407895e-03    8  4  1  1
 -4.927239225102e-03    8  4  2  2
 -4.927239219745e-03    8  4  3  3
  2.800917179105e-03    8  4  4  1
  1.420058898921e-03    8  4  4  4
 -1.306188918489e-06    8  4  5  2
  9.550993463915e-03    8  4  5  3
  4.441502754263e-03    8  4  5  5
  9.550993459831e-03    8  4  6  2
  1.306187501928e-06    8  4  6  3
 -1.196503813401e-12    8  4  6  5
  4.441502747552e-03    8  4  6  6
 -1.341561373479e-03    8  4  7  1
 -2.280975710562e-03    8  4  7  4
 -1.733187467938e-03    8  4  7  7
  1.440633580596e-02    8  4  8  1
  6.129695956797e-03    8  4  8  4
 -2.171182506690e-06    8  5  2  1
  1.828014841235e-02    8  5  3  1
  9.514738375746e-08    8  5  4  2
 -5.868075764964e-04    8  5  4  3
 -6.134747426402e-03    8  5  5  1
 -2.629419771934e-03    8  5  5  4
 -1.371516047237e-07    8  5  6  1
 -3.459842135292e-08    8  5  6  4
 -2.433967170538e-07    8  5  7  2
  3.526855788601e-03    8  5  7  3
 -8.057477005241e-04    8  5  7  5
 -9.003620046896e-08    8  5  7  6
  6.038438941902e-07    8  5  8  2
 -5.677576048667e-03    8  5  8  3
  1.703939395697e-02    8  5  8  5
  1.828014841576e-02    8  6  2  1
  2.171183814183e-06    8  6  3  1
 -5.868075821707e-04    8  6  4  2
 -9.514935186321e-08    8  6  4  3
  1.371514651596e-07    8  6  5  1
  3.459511593015e-08    8  6  5  4
 -6.134747426724e-03    8  6  6  1
 -2.629419781465e-03    8  6  6  4
  3.526855826248e-03    8  6  7  2
  2.434097942029e-07    8  6  7  3
  9.005424376699e-08    8  6  7  5
 -8.057476482831e-04    8  6  7  6
 -5.677576038573e-03    8  6  8  2
 -6.038402416185e-07    8  6  8  3
  2.301000260505e-12    8  6  8  5
  1.703939396965e-02    8  6  8  6
  4.184751352235e-02    8  7  1  1
  4.365381551912e-02    8  7  2  2
  2.533879055004e-12    8  7  3  2
  4.365381550550e-02    8  7  3  3
  1.913320804304e-03    8  7  4  1
 -2.398732196416e-02    8  7  4  4
  5.789711671658e-06    8  7  5  2
 -4.080953094346e-02    8  7  5  3
 -2.600265541182e-03    8  7  5  5
 -4.080953095575e-02    8  7  6  2
 -5.789715701343e-06    8  7  6  3
 -2.345216774345e-12    8  7  6  5
 -2.600265557309e-03    8  7  6  6
  1.348668666306e-03    8  7  7  1
 -2.551229324129e-03    8  7  7  4
  3.586746043892e-02    8  7  7  7
 -6.961398253777e-02    8  7  8  1
 -8.702075963574e-03    8  7  8  4
  5.062233666939e-02    8  7  8  7
  5.850739415927e-01    8  8  1  1
  5.092664739419e-01    8  8  2  2
  5.092664739415e-01    8  8  3  3
  2.433359101667e-02    8  8  4  1
  2.453653057884e-01    8  8  4  4
  1.083045619296e-05    8  8  5  2
 -9.007380346504e-02    8  8  5  3
  4.984398225768e-01    8  8  5  5
 -9.007380346721e-02    8  8  6  2
 -1.083045719067e-05    8  8  6  3
  4.984398225725e-01    8  8  6  6
 -7.394345687647e-02    8  8  7  1
 -2.454973105763e-02    8  8  7  4
  4.861341910584e-01    8  8  7  7
 -1.238704781041e-01    8  8  8  1
  2.805325718393e-03    8  8  8  4
  5.966570080108e-03    8  8  8  7
  5.998766296689e-01    8  8  8  8
 -3.787085210844e-06    9  1  1  1
 -1.274018189359e-05    9  1  2  2
 -3.062987623739e-06    9  1  3  2
  5.813093366573e-06    9  1  3  3
  5.211513338195e-09    9  1  4  1
 -1.566500014211e-06    9  1  4  4
  9.660341770555e-06    9  1  5  2
 -2.719093171584e-05    9  1  5  3
 -6.348378646462e-05    9  1  5  5
  3.130593003872e-05    9  1  6  2
  9.660768816908e-06    9  1  6  3
  1.948705177316e-05    9  1  6  5
  5.456628898951e-05    9  1  6  6
 -1.946157584260e-06    9  1  7  1
 -2.289835712351e-08    9  1  7  4
 -2.597730917421e-06    9  1  7  7
  8.883730257447e-07    9  1  8  1
 -2.937921846131e-07    9  1  8  4
  2.535317912384e-06    9  1  8  7
 -3.844006851246e-06    9  1  8  8
  6.681689010322e-06    9  1  9  1
 -1.216481904663e-04    9  2  2  1
 -4.015547450512e-05    9  2  3  1
  7.098368851873e-05    9  2  4  2
  2.341550078875e-05    9  2  4  3
 -2.183444679924e-05    9  2  5  1
  4.544711547210e-05    9  2  5  4
 -6.586480101020e-05    9  2  6  1
  1.376844467921e-04    9  2  6  4
 -2.793462602552e-04    9  2  7  2
 -9.212715737174e-05    9  2  7  3
 -1.742405445028e-05    9  2  7  5
 -5.279593765225e-05    9  2  7  6
 -6.209200762505e-05    9  2  8  2
 -2.052170546390e-05    9  2  8  3
 -3.971856846513e-05    9  2  8  5
 -1.205653734566e-04    9  2  8  6
  1.358732278177e-05    9  2  9  2
 -4.015547386542e-05    9  3  2  1
  1.214084988675e-04    9  3  3  1
  2.341549502083e-05    9  3  4  2
 -7.071948817766e-05    9  3  4  3
  6.633552614850e-05    9  3  5  1
 -1.375031428210e-04    9  3  5  4
 -2.183441002004e-05    9  3  6  1
  4.544713655489e-05    9  3  6  4
 -9.212716836287e-05    9  3  7  2
  2.783202925118e-04    9  3  7  3
  5.265885040241e-05    9  3  7  5
 -1.742403940169e-05    9  3  7  6
 -2.052170803686e-05    9  3  8  2
  6.210240504447e-05    9  3  8  3
  1.199262028125e-04    9  3  8  5
 -3.971864190109e-05    9  3  8  6
  5.447817505288e-09    9  3  9  2
  1.355434890732e-05    9  3  9  3
 -1.193148504310e-07    9  4  1  1
  2.160039954028e-04    9  4  2  2
  7.135904653685e-05    9  4  3  2
 -2.159233420987e-04    9  4  3  3
 -1.222083561580e-07    9  4  4  1
 -4.070891199534e-07    9  4  4  4
  6.635825901619e-05    9  4  5  2
 -2.014337032765e-04    9  4  5  3
 -3.770893677680e-04    9  4  5  5
  2.003463782899e-04    9  4  6  2
  6.635810496892e-05    9  4  6  3
  1.242958003455e-04    9  4  6  5
  3.759158727963e-04    9  4  6  6
  3.262535983685e-07    9  4  7  1
  8.956872331942e-08    9  4  7  4
 -1.608432552530e-08    9  4  7  7
 -7.185508823102e-07    9  4  8  1
 -2.367958390685e-07    9  4  8  4
  4.668942954282e-07    9  4  8  7
 -7.082764384954e-07    9  4  8  8
  5.815327432508e-06    9  4  9  1
  2.189497348827e-04    9  4  9  4
 -5.402397086335e-05    9  5  2  1
  1.638339563751e-04    9  5  3  1
  4.128082377211e-05    9  5  4  2
 -1.249869133234e-04    9  5  4  3
  8.360998157935e-05    9  5  5  1
 -2.295768665603e-04    9  5  5  4
 -2.776552711465e-05    9  5  6  1
  7.583282593333e-05    9  5  6  4
 -9.236030494241e-05    9  5  7  2
  2.792280023721e-04    9  5  7  3
  1.190288337035e-04    9  5  7  5
 -3.927161031137e-05    9  5  7  6
 -4.426637481544e-05    9  5  8  2
  1.336186862668e-04    9  5  8  3
  2.114476293968e-04    9  5  8  5
 -6.980710864935e-05    9  5  8  6
  3.300807408769e-09    9  5  9  2
  2.044826614301e-05    9  5  9  3
  3.611909469206e-05    9  5  9  5
 -1.633128562226e-04    9  6  2  1
 -5.402392956971e-05    9  6  3  1
  1.249689743685e-04    9  6  4  2
  4.128082161285e-05    9  6  4  3
 -2.776551904243e-05    9  6  5  1
  7.583281783786e-05    9  6  5  4
 -8.457262183197e-05    9  6  6  1
  2.298430058392e-04    9  6  6  4
 -2.800761379743e-04    9  6  7  2
 -9.236036184561e-05    9  6  7  3
 -3.927162813280e-05    9  6  7  5
 -1.188536697264e-04    9  6  7  6
 -1.344261402140e-04    9  6  8  2
 -4.426646532292e-05    9  6  8  3
 -6.980711344462e-05    9  6  8  5
 -2.114333443486e-04    9  6  8  6
  2.048772915304e-05    9  6  9  2
  9.733409436386e-09    9  6  9  3
  6.508893670672e-09    9  6  9  5
  3.615852204123e-05    9  6  9  6
 -6.472262411483e-06    9  7  1  1
 -1.448480878959e-04    9  7  2  2
 -4.588401399306e-05    9  7  3  2
  1.329129221647e-04    9  7  3  3
 -1.569488772749e-07    9  7  4  1
  3.063517933578e-07    9  7  4  4
 -1.623093796267e-05    9  7  5  2
  5.286038043356e-05    9  7  5  3
  1.399655786362e-04    9  7  5  5
 -4.538823927466e-05    9  7  6  2
 -1.622994451199e-05    9  7  6  3
 -4.727245119427e-05    9  7  6  5
 -1.464179109662e-04    9  7  6  6
 -6.944007989393e-07    9  7  7  1
  2.618883600349e-07    9  7  7  4
 -5.406893519367e-06    9  7  7  7
  5.430793037373e-06    9  7  8  1
  3.959087370865e-07    9  7  8  4
 -1.294280917095e-06    9  7  8  7
 -3.522012547625e-06    9  7  8  8
 -3.606146202699e-06    9  7  9  1
  7.488104305661e-06    9  7  9  4
  7.126072555896e-06    9  7  9  7
  1.323414463192e-06    9  8  1  1
  1.772188531152e-05    9  8  2  2
  4.911163563326e-06    9  8  3  2
 -1.199072607779e-05    9  8  3  3
 -3.960478949005e-07    9  8  4  1
 -3.126417671621e-06    9  8  4  4
  1.646117235660e-05    9  8  5  2
 -5.501004755544e-05    9  8  5  3
 -1.029384078416e-04    9  8  5  5
  4.465705865482e-05    9  8  6  2
  1.645978778674e-05    9  8  6  3
  3.362830768064e-05    9  8  6  5
  1.007800348638e-04    9  8  6  6
  6.319624104504e-06    9  8  7  1
  1.705935740308e-07    9  8  7  4
  2.874560054621e-06    9  8  7  7
 -4.391994590756e-06    9  8  8  1
 -4.917038118968e-07    9  8  8  4
  1.777637488600e-06    9  8  8  7
 -3.614437658449e-06    9  8  8  8
  9.516846328389e-06    9  8  9  1
  2.184960791959e-05    9  8  9  4
 -4.057538302936e-06    9  8  9  7
  1.683642026184e-05    9  8  9  8
  7.411963828026e-02    9  9  1  1
  7.417671528208e-02    9  9  2  2
  2.151667812424e-09    9  9  3  2
  7.417670225469e-02    9  9  3  3
  9.551555238779e-05    9  9  4  1
  7.516848499887e-02    9  9  4  4
 -8.341976126687e-08    9  9  5  2
  5.609879527617e-04    9  9  5  3
  7.482453861019e-02    9  9  5  5
  5.609811012450e-04    9  9  6  2
  8.115714935509e-08    9  9  6  3
 -1.692085911279e-09    9  9  6  5
  7.482452836053e-02    9  9  6  6
 -7.008111349916e-04    9  9  7  1
 -6.859893847177e-05    9  9  7  4
  7.381835644328e-02    9  9  7  7
  2.720414688900e-04    9  9  8  1
  2.040946028730e-04    9  9  8  4
 -3.563762916776e-04    9  9  8  7
  7.467326709073e-02    9  9  8  8
 -3.940908466791e-08    9  9  9  1
 -9.296105625176e-09    9  9  9  4
 -2.091136692983e-08    9  9  9  7
 -7.818392062670e-08    9  9  9  8
  7.040516976422e-02    9  9  9  9
 -3.539030269494e+00    1  1  0  0
 -3.463872441777e+00    2  2  0  0
 -3.463872441782e+00    3  3  0  0
 -9.594512313691e-02    4  1  0  0
 -1.456671172283e+00    4  4  0  0
 -1.045550240047e-04    5  2  0  0
  7.209504127824e-01    5  3  0  0
 -2.567811807197e+00    5  5  0  0
  7.209504127793e-01    6  2  0  0
  1.045550240988e-04    6  3  0  0
 -2.567811807197e+00    6  6  0  0
  3.993274679718e-02    7  1  0  0
  1.247068188617e-01    7  4  0  0
 -1.684314624580e+00    7  7  0  0
  7.911308455268e-01    8  1  0  0
  3.657616945327e-03    8  4  0  0
  2.926088387442e-01    8  7  0  0
 -2.410780207448e+00    8  8  0  0
  1.643560631249e-05    9  1  0  0
  6.683062666922e-07    9  4  0  0
 -1.838335554891e-05    9  7  0  0
 -6.572936721364e-06    9  8  0  0
 -4.915918631335e-01    9  9  0  0
    -49.306310396608   0  0  0  0
