 &FCI NORB=9 ,NELEC=7 ,MS2=1,
  ORBSYM=1,1,1,1,1,1,1,1,1,
  ISYM=1,
 &END
  6.570851802933e-01    1  1  1  1
  3.048676411282e-02    2  1  2  1
  5.814331063108e-01    2  2  1  1
  6.290916842535e-01    2  2  2  2
  3.422482435693e-08    3  1  2  1
  3.048676616462e-02    3  1  3  1
  2.744991580501e-08    3  2  1  1
  2.485455995576e-08    3  2  2  2
  2.804831326335e-02    3  2  3  2
  5.814330982739e-01    3  3  1  1
  5.729946268679e-01    3  3  2  2
  2.434148041933e-08    3  3  3  2
  6.290916858209e-01    3  3  3  3
  2.448677064028e-02    4  1  1  1
  1.908718620623e-02    4  1  2  2
 -1.477275934997e-08    4  1  3  2
  1.908718547698e-02    4  1  3  3
  3.669537661400e-03    4  1  4  1
  8.693646169132e-05    4  2  2  1
  7.698078002696e-07    4  2  3  1
  1.552806843875e-03    4  2  4  2
 -7.367332827119e-07    4  3  2  1
  8.692666546898e-05    4  3  3  1
 -1.845551440879e-08    4  3  4  2
  1.552811929823e-03    4  3  4  3
  2.123660242538e-01    4  4  1  1
  1.971601955405e-01    4  4  2  2
 -5.967745319965e-08    4  4  3  2
  1.971601962933e-01    4  4  3  3
 -1.282330673214e-03    4  4  4  1
  2.487012664063e-01    4  4  4  4
 -1.094792559144e-02    5  1  2  1
 -2.786062513148e-05    5  1  3  1
 -7.930047076520e-04    5  1  4  2
 -1.658849787992e-06    5  1  4  3
  1.372849585000e-02    5  1  5  1
 -1.498673250009e-01    5  2  1  1
 -1.854191111369e-01    5  2  2  2
 -2.990199843866e-05    5  2  3  2
 -1.623813896010e-01    5  2  3  3
 -4.565220872651e-03    5  2  4  1
  2.384898562320e-02    5  2  4  4
  1.575284283686e-01    5  2  5  2
 -3.241106608166e-04    5  3  1  1
 -3.530029003790e-04    5  3  2  2
 -1.151811780359e-02    5  3  3  2
 -4.127947442150e-04    5  3  3  3
 -9.500505512616e-06    5  3  4  1
  6.011431596807e-05    5  3  4  4
  3.104684843395e-04    5  3  5  2
  1.357271002870e-02    5  3  5  3
 -2.744614693635e-03    5  4  2  1
 -5.596655474938e-06    5  4  3  1
  2.288862533418e-03    5  4  4  2
  6.172549348834e-06    5  4  4  3
 -6.391123497972e-05    5  4  5  1
  4.818823983626e-03    5  4  5  4
  5.152894275455e-01    5  5  1  1
  5.243394219701e-01    5  5  2  2
  7.467288663618e-05    5  5  3  2
  4.882176267420e-01    5  5  3  3
  1.824944897267e-02    5  5  4  1
  2.310435699730e-01    5  5  4  4
 -1.066122518821e-01    5  5  5  2
 -2.132866979149e-04    5  5  5  3
  5.100439517055e-01    5  5  5  5
  2.792052960716e-05    6  1  2  1
 -1.094792456265e-02    6  1  3  1
  1.663342432464e-06    6  1  4  2
 -7.930076793115e-04    6  1  4  3
  2.343041658115e-08    6  1  5  1
 -7.644847051580e-07    6  1  5  4
  1.372849438111e-02    6  1  6  1
  3.241206701765e-04    6  2  1  1
  4.128136185240e-04    6  2  2  2
 -1.151811948781e-02    6  2  3  2
  3.530213532498e-04    6  2  3  3
  9.455406546010e-06    6  2  4  1
 -6.022107743576e-05    6  2  4  4
 -3.104632508623e-04    6  2  5  2
  1.357135566167e-02    6  2  5  3
  1.987394582398e-04    6  2  5  5
  1.357271531723e-02    6  2  6  2
 -1.498673068595e-01    6  3  1  1
 -1.623813730518e-01    6  3  2  2
  2.988790926470e-05    6  3  3  2
 -1.854190874487e-01    6  3  3  3
 -4.565215411304e-03    6  3  4  1
  2.384898906199e-02    6  3  4  4
  1.303823874236e-01    6  3  5  2
  3.104707436330e-04    6  3  5  3
 -9.496874344842e-02    6  3  5  5
 -3.104591143723e-04    6  3  6  2
  1.575284120130e-01    6  3  6  3
  5.635004263382e-06    6  4  2  1
 -2.744623664994e-03    6  4  3  1
 -6.243405202261e-06    6  4  4  2
  2.288874152878e-03    6  4  4  3
  7.599481938080e-07    6  4  5  1
 -6.342505848690e-08    6  4  5  4
 -6.391501475419e-05    6  4  6  1
  4.818840866782e-03    6  4  6  4
  1.815323522192e-09    6  5  1  1
 -7.464511733320e-05    6  5  2  2
  1.805963972239e-02    6  5  3  2
  7.467021228260e-05    6  5  3  3
 -4.292340800792e-08    6  5  4  1
 -9.654917018283e-08    6  5  4  4
  7.303194472291e-06    6  5  5  2
 -5.821072157105e-03    6  5  5  3
  1.756759177045e-08    6  5  5  5
 -5.821073824794e-03    6  5  6  2
 -7.284364971593e-06    6  5  6  3
  1.806390628104e-02    6  5  6  5
  5.152894636108e-01    6  6  1  1
  4.882176940268e-01    6  6  2  2
 -7.463484067019e-05    6  6  3  2
  5.243394568583e-01    6  6  3  3
  1.824945587226e-02    6  6  4  1
  2.310435677073e-01    6  6  4  4
 -9.496879639280e-02    6  6  5  2
 -1.987093902757e-04    6  6  5  3
  4.739122716025e-01    6  6  5  5
  2.133171984710e-04    6  6  6  2
 -1.066123060287e-01    6  6  6  3
  3.086737036348e-08    6  6  6  5
  5.100439655864e-01    6  6  6  6
  5.828809323491e-02    7  1  1  1
  1.471504699722e-02    7  1  2  2
 -1.423065878487e-08    7  1  3  2
  1.471424324214e-02    7  1  3  3
  8.841939552589e-03    7  1  4  1
  2.056833720597e-02    7  1  4  4
  1.737368267824e-02    7  1  5  2
  4.291995432143e-05    7  1  5  3
  3.301587466848e-02    7  1  5  5
 -4.289452249093e-05    7  1  6  2
  1.737376155505e-02    7  1  6  3
  2.022349165869e-08    7  1  6  5
  3.301541847939e-02    7  1  6  6
  1.213683375710e-01    7  1  7  1
 -8.946518979910e-03    7  2  2  1
 -6.197793394363e-07    7  2  3  1
  1.787891660705e-03    7  2  4  2
  1.418021308636e-06    7  2  4  3
 -2.930549350918e-04    7  2  5  1
  5.500232310563e-03    7  2  5  4
 -2.097864423568e-06    7  2  6  1
 -1.126920763844e-05    7  2  6  4
  3.554009549359e-02    7  2  7  2
  4.557110214801e-07    7  3  2  1
 -8.948067204183e-03    7  3  3  1
 -1.465514640973e-06    7  3  4  2
  1.788013767129e-03    7  3  4  3
  1.982740292101e-06    7  3  5  1
  1.126172135506e-05    7  3  5  4
 -2.932265364460e-04    7  3  6  1
  5.501008601330e-03    7  3  6  4
  2.457640000100e-07    7  3  7  2
  3.554782076397e-02    7  3  7  3
  2.591128258949e-02    7  4  1  1
  2.209335658900e-02    7  4  2  2
  4.292461541219e-08    7  4  3  2
  2.209339011195e-02    7  4  3  3
  2.373697241500e-03    7  4  4  1
 -3.268907872887e-03    7  4  4  4
 -4.474207604098e-03    7  4  5  2
 -1.069073047762e-05    7  4  5  3
  1.781763121561e-02    7  4  5  5
  1.079895062667e-05    7  4  6  2
 -4.474071736718e-03    7  4  6  3
  8.986858169829e-08    7  4  6  5
  1.781769342619e-02    7  4  6  6
  6.518327626737e-03    7  4  7  1
  2.926594045962e-03    7  4  7  4
  5.658268713234e-04    7  5  2  1
  4.832823198522e-06    7  5  3  1
  1.852923940563e-03    7  5  4  2
  3.813450433646e-06    7  5  4  3
 -1.126806393422e-03    7  5  5  1
  1.983532154587e-03    7  5  5  4
  6.772479939801e-08    7  5  6  1
 -1.668334888372e-06    7  5  6  4
 -3.589903935439e-03    7  5  7  2
 -1.862688645228e-05    7  5  7  3
  8.415233195257e-03    7  5  7  5
 -4.966017735257e-06    7  6  2  1
  5.658850137915e-04    7  6  3  1
 -3.762787772313e-06    7  6  4  2
  1.853159406321e-03    7  6  4  3
 -1.677849145274e-07    7  6  5  1
  1.745166602462e-06    7  6  5  4
 -1.126937294510e-03    7  6  6  1
  1.983595363172e-03    7  6  6  4
  1.886430565161e-05    7  6  7  2
 -3.590888414584e-03    7  6  7  3
  1.132240762870e-07    7  6  7  5
  8.416647341814e-03    7  6  7  6
  6.330092760470e-01    7  7  1  1
  5.769845880889e-01    7  7  2  2
  1.563352505247e-07    7  7  3  2
  5.769892188635e-01    7  7  3  3
  2.225774032774e-02    7  7  4  1
  1.917584445289e-01    7  7  4  4
 -1.481043443089e-01    7  7  5  2
 -3.340610767567e-04    7  7  5  3
  4.805464831670e-01    7  7  5  5
  3.341314132372e-04    7  7  6  2
 -1.481053972635e-01    7  7  6  3
  1.233814003931e-07    7  7  6  5
  4.805488488029e-01    7  7  6  6
  4.507634041555e-02    7  7  7  1
  2.796765044701e-02    7  7  7  4
  6.569002070078e-01    7  7  7  7
  1.823804685707e-01    8  1  1  1
  1.697287470490e-01    8  1  2  2
  1.560845321908e-08    8  1  3  2
  1.697286208363e-01    8  1  3  3
  7.050727913614e-03    8  1  4  1
 -3.369353746307e-02    8  1  4  4
 -1.386597420670e-01    8  1  5  2
 -3.027753602232e-04    8  1  5  3
  8.726635061553e-02    8  1  5  5
  3.028177840661e-04    8  1  6  2
 -1.386597142286e-01    8  1  6  3
  4.399443202826e-08    8  1  6  5
  8.726632937461e-02    8  1  6  6
  9.675596123516e-03    8  1  7  1
  9.378044340764e-03    8  1  7  4
  1.868583048382e-01    8  1  7  7
  1.884841799426e-01    8  1  8  1
  1.248500666440e-02    8  2  2  1
  2.054157616292e-06    8  2  3  1
  1.528597833662e-03    8  2  4  2
  1.191749888738e-07    8  2  4  3
 -1.221698164174e-02    8  2  5  1
  2.434146422175e-04    8  2  5  4
  2.584258656427e-05    8  2  6  1
 -8.650879252153e-07    8  2  6  4
 -1.078427985817e-03    8  2  7  2
 -7.880578006503e-07    8  2  7  3
  2.336414593457e-03    8  2  7  5
 -5.115970430100e-06    8  2  7  6
  1.459619481616e-02    8  2  8  2
 -2.138490525488e-06    8  3  2  1
  1.248476192807e-02    8  3  3  1
 -9.002151293607e-08    8  3  4  2
  1.528609271019e-03    8  3  4  3
 -2.592132120178e-05    8  3  5  1
  8.952400599663e-07    8  3  5  4
 -1.221700107885e-02    8  3  6  1
  2.435378690186e-04    8  3  6  4
  9.463030889717e-07    8  3  7  2
 -1.078241097740e-03    8  3  7  3
  5.214822664345e-06    8  3  7  5
  2.336846057115e-03    8  3  7  6
  3.565980729993e-09    8  3  8  2
  1.459604428905e-02    8  3  8  3
  2.651440413247e-04    8  4  1  1
  1.305605930572e-03    8  4  2  2
  6.522888385903e-08    8  4  3  2
  1.305597458061e-03    8  4  3  3
 -2.990867223810e-03    8  4  4  1
 -6.726923316895e-04    8  4  4  4
 -9.166316864664e-03    8  4  5  2
 -2.077537042293e-05    8  4  5  3
 -7.073204508837e-03    8  4  5  5
  2.090719898224e-05    8  4  6  2
 -9.166305134212e-03    8  4  6  3
  1.264832292387e-07    8  4  6  5
 -7.073217461024e-03    8  4  6  6
  1.084006578281e-03    8  4  7  1
 -1.091702985067e-03    8  4  7  4
  2.252464055840e-03    8  4  7  7
  1.370332825181e-02    8  4  8  1
  6.356231852023e-03    8  4  8  4
 -1.881624572927e-02    8  5  2  1
 -3.830307779103e-05    8  5  3  1
  8.975033685531e-05    8  5  4  2
  6.384251291922e-07    8  5  4  3
  6.217057481971e-03    8  5  5  1
  2.286959284177e-03    8  5  5  4
 -2.601068651429e-06    8  5  6  1
 -3.171452060114e-07    8  5  6  4
  5.608824726170e-03    8  5  7  2
  1.084286482232e-05    8  5  7  3
 -3.857901263873e-04    8  5  7  5
  1.801722800326e-06    8  5  7  6
 -6.757540484406e-03    8  5  8  2
 -1.147138730414e-05    8  5  8  3
  1.798287420026e-02    8  5  8  5
  3.814283274008e-05    8  6  2  1
 -1.881621970697e-02    8  6  3  1
 -6.125860091062e-07    8  6  4  2
  8.979030707840e-05    8  6  4  3
  2.477954965976e-06    8  6  5  1
  3.661981633944e-07    8  6  5  4
  6.217046870414e-03    8  6  6  1
  2.286963244033e-03    8  6  6  4
 -1.057215608404e-05    8  6  7  2
  5.609813702360e-03    8  6  7  3
 -1.578950426288e-06    8  6  7  5
 -3.857660165779e-04    8  6  7  6
  1.160410139657e-05    8  6  8  2
 -6.757288347367e-03    8  6  8  3
  1.501210568196e-07    8  6  8  5
  1.798280951399e-02    8  6  8  6
  3.874953632575e-02    8  7  1  1
  2.485763282735e-02    8  7  2  2
  3.013900819137e-08    8  7  3  2
  2.485781795863e-02    8  7  3  3
  4.055770383947e-03    8  7  4  1
 -7.207051509225e-03    8  7  4  4
 -1.740187567048e-02    8  7  5  2
 -4.044159592695e-05    8  7  5  3
  5.924282710072e-03    8  7  5  5
  4.042474662042e-05    8  7  6  2
 -1.740167151787e-02    8  7  6  3
 -9.995369460338e-09    8  7  6  5
  5.924435210104e-03    8  7  6  6
  4.855340367854e-02    8  7  7  1
  4.255048677200e-03    8  7  7  4
  4.386191158180e-02    8  7  7  7
  4.909187929437e-02    8  7  8  1
  5.887445396511e-03    8  7  8  4
  4.635001900218e-02    8  7  8  7
  5.841673004964e-01    8  8  1  1
  5.027994263115e-01    8  8  2  2
 -1.778025527868e-08    8  8  3  2
  5.027993379096e-01    8  8  3  3
  2.439741744002e-02    8  8  4  1
  2.526835915452e-01    8  8  4  4
 -8.070478134564e-02    8  8  5  2
 -1.570198794367e-04    8  8  5  3
  5.130202205796e-01    8  8  5  5
  1.569288620164e-04    8  8  6  2
 -8.070467595744e-02    8  8  6  3
 -9.954666797299e-08    8  8  6  5
  5.130202077074e-01    8  8  6  6
  9.052197705446e-02    8  8  7  1
  2.077210563402e-02    8  8  7  4
  5.244980453155e-01    8  8  7  7
  9.076077613432e-02    8  8  8  1
 -8.715619828448e-03    8  8  8  4
  2.376199976430e-02    8  8  8  7
  6.220693588353e-01    8  8  8  8
 -5.255742170582e-02    9  1  1  1
 -4.954069333140e-02    9  1  2  2
  2.666245377451e-08    9  1  3  2
 -4.954057021496e-02    9  1  3  3
 -1.515337482282e-03    9  1  4  1
 -1.802619141030e-02    9  1  4  4
  4.647059490363e-02    9  1  5  2
  8.363836525486e-05    9  1  5  3
 -6.357738073088e-02    9  1  5  5
 -8.358502453421e-05    9  1  6  2
  4.647059756206e-02    9  1  6  3
  5.674345361277e-08    9  1  6  5
 -6.357733780523e-02    9  1  6  6
  1.851535170297e-02    9  1  7  1
  2.101831209160e-03    9  1  7  4
 -1.488525931628e-02    9  1  7  7
 -4.140314299470e-02    9  1  8  1
  7.374832672266e-05    9  1  8  4
  1.173439046577e-02    9  1  8  7
 -8.000034544137e-02    9  1  8  8
  8.770425724764e-02    9  1  9  1
  3.223370363552e-04    9  2  2  1
 -9.449533799357e-07    9  2  3  1
 -2.082674583926e-04    9  2  4  2
 -1.422845349681e-08    9  2  4  3
  6.845824980198e-03    9  2  5  1
 -2.290832732070e-06    9  2  5  4
 -9.954092828519e-06    9  2  6  1
  2.257740198048e-07    9  2  6  4
  2.204842321355e-03    9  2  7  2
  5.749575415279e-07    9  2  7  3
 -1.632173537423e-03    9  2  7  5
  3.771578404274e-06    9  2  7  6
 -5.627701373598e-03    9  2  8  2
 -1.260916750428e-06    9  2  8  3
  4.997720592197e-03    9  2  8  5
 -9.708631768674e-06    9  2  8  6
  1.286944700687e-02    9  2  9  2
  9.660659699593e-07    9  3  2  1
  3.225550899147e-04    9  3  3  1
  2.485419461247e-08    9  3  4  2
 -2.082907449880e-04    9  3  4  3
  9.935316531187e-06    9  3  5  1
 -2.261950753077e-07    9  3  5  4
  6.845857257206e-03    9  3  6  1
 -2.405043668507e-06    9  3  6  4
 -6.387379917646e-07    9  3  7  2
  2.204377984845e-03    9  3  7  3
 -3.799809454089e-06    9  3  7  5
 -1.632324250143e-03    9  3  7  6
  1.219385012823e-06    9  3  8  2
 -5.627636345970e-03    9  3  8  3
  9.667503256596e-06    9  3  8  5
  4.997535806267e-03    9  3  8  6
 -2.660901767049e-08    9  3  9  2
  1.286942867604e-02    9  3  9  3
 -1.442632180121e-02    9  4  1  1
 -1.242118460869e-02    9  4  2  2
  2.956360673380e-08    9  4  3  2
 -1.242120218772e-02    9  4  3  3
 -2.576350424483e-03    9  4  4  1
 -3.594311090560e-03    9  4  4  4
 -1.449749132241e-03    9  4  5  2
 -4.435788424634e-06    9  4  5  3
 -1.707045531115e-02    9  4  5  5
  4.498032240457e-06    9  4  6  2
 -1.449778771795e-03    9  4  6  3
  5.824071639924e-08    9  4  6  5
 -1.707048435025e-02    9  4  6  6
 -3.001748460331e-03    9  4  7  1
 -1.362362722704e-03    9  4  7  4
 -1.075274717320e-02    9  4  7  7
  2.601512112827e-03    9  4  8  1
  3.636404574726e-03    9  4  8  4
  5.779753813385e-04    9  4  8  7
 -2.166660522351e-02    9  4  8  8
  3.778068528587e-03    9  4  9  1
  3.051119013351e-03    9  4  9  4
  1.052081959405e-02    9  5  2  1
  1.628799806480e-05    9  5  3  1
  6.548449628662e-05    9  5  4  2
 -9.768156419953e-08    9  5  4  3
 -7.310295500923e-03    9  5  5  1
 -7.708072868776e-04    9  5  5  4
  1.909918929343e-06    9  5  6  1
  4.509899784756e-08    9  5  6  4
 -3.122863236008e-03    9  5  7  2
 -6.903285492734e-06    9  5  7  3
  7.921496569345e-04    9  5  7  5
 -7.840421218151e-07    9  5  7  6
  8.949733510879e-03    9  5  8  2
  1.690721032958e-05    9  5  8  3
 -5.701141936554e-03    9  5  8  5
  1.744024230865e-06    9  5  8  6
 -3.692842187439e-03    9  5  9  2
 -8.241052053585e-06    9  5  9  3
  1.150730706111e-02    9  5  9  5
 -1.633201646987e-05    9  6  2  1
  1.052084199070e-02    9  6  3  1
  1.255596566713e-07    9  6  4  2
  6.544203424303e-05    9  6  4  3
 -1.949755137987e-06    9  6  5  1
 -1.712701444391e-08    9  6  5  4
 -7.310266920230e-03    9  6  6  1
 -7.708359753037e-04    9  6  6  4
  6.919129479895e-06    9  6  7  2
 -3.123140902670e-03    9  6  7  3
  7.863266344196e-07    9  6  7  5
  7.920381966304e-04    9  6  7  6
 -1.693033526823e-05    9  6  8  2
  8.949613721460e-03    9  6  8  3
 -1.677681036159e-06    9  6  8  5
 -5.701163478657e-03    9  6  8  6
  8.198872771198e-06    9  6  9  2
 -3.692766602724e-03    9  6  9  3
 -2.478391801164e-09    9  6  9  5
  1.150731446514e-02    9  6  9  6
  5.974907957228e-02    9  7  1  1
  4.653254112233e-02    9  7  2  2
 -1.900437764908e-08    9  7  3  2
  4.653223553594e-02    9  7  3  3
  2.621073436285e-03    9  7  4  1
  2.238997666725e-03    9  7  4  4
 -2.376824285093e-02    9  7  5  2
 -5.110379915349e-05    9  7  5  3
  3.521331174036e-02    9  7  5  5
  5.108459005103e-05    9  7  6  2
 -2.376835837445e-02    9  7  6  3
 -2.541265264050e-08    9  7  6  5
  3.521310958068e-02    9  7  6  6
  1.751672350898e-02    9  7  7  1
  3.480609221022e-03    9  7  7  4
  6.089352441561e-02    9  7  7  7
  3.167170983186e-02    9  7  8  1
  7.465779927494e-04    9  7  8  4
 -1.848323036428e-03    9  7  8  7
  3.811022157444e-02    9  7  8  8
 -9.708341765498e-03    9  7  9  1
  7.003737388892e-04    9  7  9  4
  3.728025182029e-02    9  7  9  7
 -1.115980874165e-01    9  8  1  1
 -1.216991674877e-01    9  8  2  2
 -4.986925474589e-08    9  8  3  2
 -1.216991451706e-01    9  8  3  3
 -1.621041216373e-03    9  8  4  1
  4.132784532501e-02    9  8  4  4
  1.185593803456e-01    9  8  5  2
  2.598341519027e-04    9  8  5  3
 -4.831475924541e-02    9  8  5  5
 -2.599454762759e-04    9  8  6  2
  1.185593102378e-01    9  8  6  3
 -9.736258743561e-08    9  8  6  5
 -4.831480657893e-02    9  8  6  6
  3.204131758531e-02    9  8  7  1
 -5.204669504771e-03    9  8  7  4
 -1.181108403141e-01    9  8  7  7
 -1.500593575543e-01    9  8  8  1
 -1.244152481448e-02    9  8  8  4
 -2.294263277355e-02    9  8  8  7
 -2.116335930942e-02    9  8  8  8
  3.951598193401e-02    9  8  9  1
 -5.042040767854e-03    9  8  9  4
 -2.138272482125e-02    9  8  9  7
  1.528486240206e-01    9  8  9  8
  5.910968735470e-01    9  9  1  1
  5.350503197453e-01    9  9  2  2
 -1.226002266361e-08    9  9  3  2
  5.350503041667e-01    9  9  3  3
  1.979664247082e-02    9  9  4  1
  2.063441306822e-01    9  9  4  4
 -1.348199765966e-01    9  9  5  2
 -2.862194131609e-04    9  9  5  3
  4.904296023026e-01    9  9  5  5
  2.861680115422e-04    9  9  6  2
 -1.348199090922e-01    9  9  6  3
 -5.460500007987e-08    9  9  6  5
  4.904296646722e-01    9  9  6  6
  1.222294280844e-02    9  9  7  1
  2.112328640646e-02    9  9  7  4
  5.598285089743e-01    9  9  7  7
  1.446916012918e-01    9  9  8  1
 -4.678678413437e-03    9  9  8  4
  6.006596037571e-03    9  9  8  7
  5.436377133898e-01    9  9  8  8
 -7.132091643174e-02    9  9  9  1
 -1.515308753783e-02    9  9  9  4
  4.823948173212e-02    9  9  9  7
 -1.057653715084e-01    9  9  9  8
  5.850678884993e-01    9  9  9  9
 -3.555977454163e+00    1  1  0  0
 -3.469842859923e+00    2  2  0  0
 -8.320220523178e-08    3  2  0  0
 -3.469842791567e+00    3  3  0  0
 -9.888475497257e-02    4  1  0  0
 -1.450143034487e+00    4  4  0  0
  7.247701422690e-01    5  2  0  0
  1.745729604417e-03    5  3  0  0
 -2.592663855691e+00    5  5  0  0
 -1.745857952671e-03    6  2  0  0
  7.247701156042e-01    6  3  0  0
 -7.580324700179e-08    6  5  0  0
 -2.592663918497e+00    6  6  0  0
 -1.587942081741e-01    7  1  0  0
 -1.188516407204e-01    7  4  0  0
 -1.557850729462e+00    7  7  0  0
 -7.687021975857e-01    8  1  0  0
  1.191277677909e-02    8  4  0  0
  1.633600709492e-01    8  7  0  0
 -2.519948413586e+00    8  8  0  0
  2.210035590313e-01    9  1  0  0
  7.528958522407e-02    9  4  0  0
  2.030113025471e-01    9  7  0  0
  1.091333608628e-01    9  8  0  0
 -1.313836206846e+00    9  9  0  0
    -49.270279793348   0  0  0  0
