#INFO: **** input file is /projects/bamu3429/BENCHMARK/fresh_atoms/MRPT/vqz/monoxides/ScO/mrpt.py ****
import json
from pyscf import gto,scf,mcscf, fci, lo, ci, cc
from pyscf.scf import ROHF, UHF,ROKS
import numpy as np
import pandas as pd

# THIS IS WERE IT STARTS ====================================

df=json.load(open("../../../trail.json"))

spins={'ScO':1, 'TiO':2, 'VO':3, 'CrO':4, 'MnO':5, 'FeO':4, 'CuO':1}

nd={'Sc':(1,0), 'Ti':(2,0), 'V':(3,0), 'Cr':(5,0), 'Mn':(5,0), 'Fe':(5,1), 'Cu':(5,4)}

cas={'Sc':3, 'Ti':4, 'V':5, 'Cr':6, 'Mn':7, 'Fe':8, 'Cu':11}

re={'ScO':1.668, 'TiO':1.623, 'VO':1.591, 'CrO':1.621, 'MnO':1.648, 'FeO':1.616, 'CuO':1.725}

datacsv={}
for nm in ['basis','charge','method','molecule','pseudopotential',
           'totalenergy','totalenergy-stocherr','totalenergy-syserr']:
  datacsv[nm]=[]

basis='vqz'
element='Sc'

mol=gto.Mole()
mol.ecp={}
mol.basis={}
for el in [element,'O']:
  mol.ecp[el]=gto.basis.parse_ecp(df[el]['ecp'])
  mol.basis[el]=gto.basis.parse(df[el][basis])
mol.charge=0
mol.spin=spins[element+'O']
mol.build(atom="%s 0. 0. 0.; O 0. 0. %g"%(element,re[element+'O']),verbose=4)

m=ROHF(mol)
m.level_shift=1000.0
dm=m.from_chk("../../../../HF/monoxides/"+element+basis+"0.chk")
hf=m.kernel(dm)
m.analyze()

from pyscf.shciscf import shci
mc = shci.SHCISCF(m, 9, 4+cas[element])
#mc.fcisolver.conv_tol = 1e-14
mc.fcisolver.mpiprefix="mpirun -np 28"
mc.fcisolver.num_thrds=12
mc.verbose = 4
cas=mc.kernel()[0]
 
from pyscf.icmpspt import icmpspt
pt=icmpspt.icmpspt(mc,rdmM=500, PTM=1000,\
                          pttype="MRLCC",\
                          third_order=True,\
                          fully_ic=True,\
                          do_dm4=True)

datacsv['basis'].append(basis)
datacsv['charge'].append(0)
datacsv['method'].append('MRPT')
datacsv['molecule'].append(element)
datacsv['pseudopotential'].append('trail')
datacsv['totalenergy'].append(cas+pt)
datacsv['totalenergy-stocherr'].append(0.0)
datacsv['totalenergy-syserr'].append(0.0)
pd.DataFrame(datacsv).to_csv(element+".csv",index=False)

#INFO: ******************** input file end ********************


System: ('Linux', 'bnode0306.rc.int.colorado.edu', '3.10.0-514.41.1.el7.x86_64', '#1 SMP Wed Jan 17 10:26:16 EST 2018', 'x86_64', 'x86_64')  Threads 1
Python 2.7.11 (default, Mar 22 2016, 01:42:54) 
[GCC Intel(R) C++ gcc 4.8 mode]
numpy 1.11.1  scipy 0.17.1
Date: Wed Mar 28 10:09:27 2018
PySCF version 1.4
PySCF path  /projects/bamu3429/softwares/pyscf_uptodate/pyscf
GIT ORIG_HEAD e2292e6edec2b0e0024c21b81de03db1d7bd4121
GIT HEAD      ref: refs/heads/master
GIT master branch  f3591ef22170896a4cdc2aadaa6f5da388ffcadb

[INPUT] VERBOSE 4
[INPUT] num atoms = 2
[INPUT] num electrons = 17
[INPUT] charge = 0
[INPUT] spin (= nelec alpha-beta = 2S) = 1
[INPUT] symmetry False subgroup None
[INPUT]  1 Sc     0.000000000000   0.000000000000   0.000000000000 AA    0.000000000000   0.000000000000   0.000000000000 Bohr
[INPUT]  2 O      0.000000000000   0.000000000000   1.668000000000 AA    0.000000000000   0.000000000000   3.152063175775 Bohr
[INPUT] ---------------- BASIS SET ---------------- 
[INPUT] l, kappa, [nprim/nctr], expnt,             c_1 c_2 ...
[INPUT] Sc
[INPUT] 0    0    [12   /1   ]  36.40041505       0.005374
                                19.41172108       -0.032266
                                7.76559262        0.361279
                                4.72233684        -0.858519
                                3.30202494        0.196889
                                1.73290764        0.133972
                                0.86033787        0.640189
                                0.4883664         0.334618
                                0.23725388        0.123744
                                0.10565308        -0.017421
                                0.04670613        0.010856
                                0.020926          -0.001573
[INPUT] 0    0    [12   /1   ]  36.40041505       -0.001039
                                19.41172108       0.006911
                                7.76559262        -0.089603
                                4.72233684        0.22876
                                3.30202494        -0.05839
                                1.73290764        -0.038559
                                0.86033787        -0.215849
                                0.4883664         -0.20849
                                0.23725388        -0.146275
                                0.10565308        0.350802
                                0.04670613        0.655178
                                0.020926          0.218601
[INPUT] 0    0    [12   /1   ]  36.40041505       -0.001757
                                19.41172108       0.017214
                                7.76559262        -0.309351
                                4.72233684        0.852232
                                3.30202494        -0.054357
                                1.73290764        -0.877431
                                0.86033787        -0.851357
                                0.4883664         0.434617
                                0.23725388        0.828918
                                0.10565308        0.711195
                                0.04670613        -0.620805
                                0.020926          -0.444929
[INPUT] 0    0    [12   /1   ]  36.40041505       0.001346
                                19.41172108       -0.019857
                                7.76559262        0.462727
                                4.72233684        -1.512081
                                3.30202494        0.363612
                                1.73290764        2.07208
                                0.86033787        0.406995
                                0.4883664         -2.637763
                                0.23725388        0.089702
                                0.10565308        1.912195
                                0.04670613        -0.405077
                                0.020926          -0.728926
[INPUT] 0    0    [12   /1   ]  36.40041505       0.000907
                                19.41172108       -0.027625
                                7.76559262        0.982752
                                4.72233684        -4.902832
                                3.30202494        5.022953
                                1.73290764        1.990521
                                0.86033787        -5.42832
                                0.4883664         1.522074
                                0.23725388        2.933352
                                0.10565308        -2.057669
                                0.04670613        -0.536188
                                0.020926          0.972674
[INPUT] 0    0    [1    /1   ]  0.020926             1
[INPUT] 0    0    [1    /1   ]  0.00937558           1
[INPUT] 1    0    [12   /1   ]  41.12697558       0.001162
                                22.43738592       -0.006345
                                11.2588519        0.030743
                                6.08582478        -0.083979
                                3.77549759        -0.031739
                                2.17906519        0.232763
                                1.07491872        0.420436
                                0.55241218        0.351975
                                0.2815094         0.143464
                                0.12312886        0.016009
                                0.0538551         0.000238
                                0.02355558        0.000253
[INPUT] 1    0    [12   /1   ]  41.12697558       -0.000251
                                22.43738592       0.001425
                                11.2588519        -0.007434
                                6.08582478        0.022493
                                3.77549759        0.004514
                                2.17906519        -0.065531
                                1.07491872        -0.124901
                                0.55241218        -0.130795
                                0.2815094         0.004026
                                0.12312886        0.357311
                                0.0538551         0.542386
                                0.02355558        0.222946
[INPUT] 1    0    [12   /1   ]  41.12697558       0.000654
                                22.43738592       -0.004898
                                11.2588519        0.034844
                                6.08582478        -0.123849
                                3.77549759        -0.120682
                                2.17906519        0.895125
                                1.07491872        0.354763
                                0.55241218        -0.901706
                                0.2815094         -0.574936
                                0.12312886        0.607186
                                0.0538551         0.43331
                                0.02355558        0.006588
[INPUT] 1    0    [12   /1   ]  41.12697558       0.002261
                                22.43738592       -0.014029
                                11.2588519        0.095625
                                6.08582478        -0.499626
                                3.77549759        0.596953
                                2.17906519        1.437784
                                1.07491872        -1.687632
                                0.55241218        -0.788853
                                0.2815094         1.701663
                                0.12312886        -0.108012
                                0.0538551         -0.637662
                                0.02355558        -0.000786
[INPUT] 1    0    [12   /1   ]  41.12697558       0.003355
                                22.43738592       -0.02062
                                11.2588519        0.167806
                                6.08582478        -1.324932
                                3.77549759        3.523648
                                2.17906519        -1.758961
                                1.07491872        -2.274845
                                0.55241218        3.517897
                                0.2815094         -1.410371
                                0.12312886        -0.897238
                                0.0538551         0.987779
                                0.02355558        -0.008436
[INPUT] 1    0    [1    /1   ]  0.02355558           1
[INPUT] 1    0    [1    /1   ]  0.01030293           1
[INPUT] 2    0    [10   /1   ]  23.41055103       -0.002062
                                9.57667856        0.014373
                                5.80916551        0.096933
                                2.24207749        0.204502
                                1.03019541        0.261896
                                0.49142269        0.31382
                                0.21727354        0.282419
                                0.10003285        0.15287
                                0.04583255        0.056392
                                0.02097146        0.002436
[INPUT] 2    0    [10   /1   ]  23.41055103       0.003531
                                9.57667856        -0.025139
                                5.80916551        -0.060155
                                2.24207749        -0.368895
                                1.03019541        -0.411747
                                0.49142269        0.111786
                                0.21727354        0.353557
                                0.10003285        0.348464
                                0.04583255        0.162515
                                0.02097146        0.016902
[INPUT] 2    0    [10   /1   ]  23.41055103       0.002805
                                9.57667856        -0.021771
                                5.80916551        -0.030825
                                2.24207749        -0.649844
                                1.03019541        0.02906
                                0.49142269        0.758049
                                0.21727354        0.174218
                                0.10003285        -0.465169
                                0.04583255        -0.346161
                                0.02097146        -0.046508
[INPUT] 2    0    [10   /1   ]  23.41055103       -0.010193
                                9.57667856        0.070326
                                5.80916551        -0.45629
                                2.24207749        -0.797936
                                1.03019541        1.519518
                                0.49142269        -0.34248
                                0.21727354        -0.705581
                                0.10003285        0.222964
                                0.04583255        0.392544
                                0.02097146        0.055526
[INPUT] 2    0    [1    /1   ]  0.02097146           1
[INPUT] 2    0    [1    /1   ]  0.00959584           1
[INPUT] 3    0    [1    /1   ]  2.307831             1
[INPUT] 3    0    [1    /1   ]  0.808322             1
[INPUT] 3    0    [1    /1   ]  0.283115             1
[INPUT] 3    0    [1    /1   ]  0.0991611            1
[INPUT] 4    0    [1    /1   ]  2.421709             1
[INPUT] 4    0    [1    /1   ]  0.898168             1
[INPUT] 4    0    [1    /1   ]  0.33311423           1
[INPUT] 5    0    [1    /1   ]  2.103991             1
[INPUT] 5    0    [1    /1   ]  0.78033213           1
[INPUT] O
[INPUT] 0    0    [10   /1   ]  57.663349         -0.002794
                                35.726816         0.023976
                                22.453757         -0.115974
                                14.732301         0.288033
                                9.739917          -0.274786
                                5.042008          -0.083789
                                2.157818          0.063778
                                1.002916          0.410182
                                0.421839          0.504044
                                0.173041          0.172152
[INPUT] 0    0    [1    /1   ]  1.70747              1
[INPUT] 0    0    [1    /1   ]  0.617491             1
[INPUT] 0    0    [1    /1   ]  0.223309             1
[INPUT] 0    0    [1    /1   ]  0.084592             1
[INPUT] 1    0    [10   /1   ]  52.47406          -0.000522
                                32.138432         0.004857
                                19.458579         -0.027749
                                11.839344         0.074258
                                7.91003           0.014369
                                3.670858          0.153479
                                1.53966           0.283685
                                0.647119          0.358201
                                0.267853          0.29559
                                0.107198          0.104889
[INPUT] 1    0    [1    /1   ]  1.345435             1
[INPUT] 1    0    [1    /1   ]  0.458358             1
[INPUT] 1    0    [1    /1   ]  0.156151             1
[INPUT] 1    0    [1    /1   ]  0.045837             1
[INPUT] 2    0    [1    /1   ]  3.661538             1
[INPUT] 2    0    [1    /1   ]  1.279275             1
[INPUT] 2    0    [1    /1   ]  0.446952             1
[INPUT] 2    0    [1    /1   ]  0.148191             1
[INPUT] 3    0    [1    /1   ]  2.598839             1
[INPUT] 3    0    [1    /1   ]  0.849032             1
[INPUT] 3    0    [1    /1   ]  0.310222             1
[INPUT] 4    0    [1    /1   ]  1.838653             1
[INPUT] 4    0    [1    /1   ]  0.706784             1
nuclear repulsion = 20.9386666191367
number of shells = 48
number of NR pGTOs = 650
number of NR cGTOs = 214
basis = {'Sc': [[0, [36.40041505, 0.005374], [19.41172108, -0.032266], [7.76559262, 0.361279], [4.72233684, -0.858519], [3.30202494, 0.196889], [1.73290764, 0.133972], [0.86033787, 0.640189], [0.4883664, 0.334618], [0.23725388, 0.123744], [0.10565308, -0.017421], [0.04670613, 0.010856], [0.020926, -0.001573]], [0, [36.40041505, -0.001039], [19.41172108, 0.006911], [7.76559262, -0.089603], [4.72233684, 0.22876], [3.30202494, -0.05839], [1.73290764, -0.038559], [0.86033787, -0.215849], [0.4883664, -0.20849], [0.23725388, -0.146275], [0.10565308, 0.350802], [0.04670613, 0.655178], [0.020926, 0.218601]], [0, [36.40041505, -0.001757], [19.41172108, 0.017214], [7.76559262, -0.309351], [4.72233684, 0.852232], [3.30202494, -0.054357], [1.73290764, -0.877431], [0.86033787, -0.851357], [0.4883664, 0.434617], [0.23725388, 0.828918], [0.10565308, 0.711195], [0.04670613, -0.620805], [0.020926, -0.444929]], [0, [36.40041505, 0.001346], [19.41172108, -0.019857], [7.76559262, 0.462727], [4.72233684, -1.512081], [3.30202494, 0.363612], [1.73290764, 2.07208], [0.86033787, 0.406995], [0.4883664, -2.637763], [0.23725388, 0.089702], [0.10565308, 1.912195], [0.04670613, -0.405077], [0.020926, -0.728926]], [0, [36.40041505, 0.000907], [19.41172108, -0.027625], [7.76559262, 0.982752], [4.72233684, -4.902832], [3.30202494, 5.022953], [1.73290764, 1.990521], [0.86033787, -5.42832], [0.4883664, 1.522074], [0.23725388, 2.933352], [0.10565308, -2.057669], [0.04670613, -0.536188], [0.020926, 0.972674]], [0, [0.020926, 1.0]], [0, [0.00937558, 1.0]], [1, [41.12697558, 0.001162], [22.43738592, -0.006345], [11.2588519, 0.030743], [6.08582478, -0.083979], [3.77549759, -0.031739], [2.17906519, 0.232763], [1.07491872, 0.420436], [0.55241218, 0.351975], [0.2815094, 0.143464], [0.12312886, 0.016009], [0.0538551, 0.000238], [0.02355558, 0.000253]], [1, [41.12697558, -0.000251], [22.43738592, 0.001425], [11.2588519, -0.007434], [6.08582478, 0.022493], [3.77549759, 0.004514], [2.17906519, -0.065531], [1.07491872, -0.124901], [0.55241218, -0.130795], [0.2815094, 0.004026], [0.12312886, 0.357311], [0.0538551, 0.542386], [0.02355558, 0.222946]], [1, [41.12697558, 0.000654], [22.43738592, -0.004898], [11.2588519, 0.034844], [6.08582478, -0.123849], [3.77549759, -0.120682], [2.17906519, 0.895125], [1.07491872, 0.354763], [0.55241218, -0.901706], [0.2815094, -0.574936], [0.12312886, 0.607186], [0.0538551, 0.43331], [0.02355558, 0.006588]], [1, [41.12697558, 0.002261], [22.43738592, -0.014029], [11.2588519, 0.095625], [6.08582478, -0.499626], [3.77549759, 0.596953], [2.17906519, 1.437784], [1.07491872, -1.687632], [0.55241218, -0.788853], [0.2815094, 1.701663], [0.12312886, -0.108012], [0.0538551, -0.637662], [0.02355558, -0.000786]], [1, [41.12697558, 0.003355], [22.43738592, -0.02062], [11.2588519, 0.167806], [6.08582478, -1.324932], [3.77549759, 3.523648], [2.17906519, -1.758961], [1.07491872, -2.274845], [0.55241218, 3.517897], [0.2815094, -1.410371], [0.12312886, -0.897238], [0.0538551, 0.987779], [0.02355558, -0.008436]], [1, [0.02355558, 1.0]], [1, [0.01030293, 1.0]], [2, [23.41055103, -0.002062], [9.57667856, 0.014373], [5.80916551, 0.096933], [2.24207749, 0.204502], [1.03019541, 0.261896], [0.49142269, 0.31382], [0.21727354, 0.282419], [0.10003285, 0.15287], [0.04583255, 0.056392], [0.02097146, 0.002436]], [2, [23.41055103, 0.003531], [9.57667856, -0.025139], [5.80916551, -0.060155], [2.24207749, -0.368895], [1.03019541, -0.411747], [0.49142269, 0.111786], [0.21727354, 0.353557], [0.10003285, 0.348464], [0.04583255, 0.162515], [0.02097146, 0.016902]], [2, [23.41055103, 0.002805], [9.57667856, -0.021771], [5.80916551, -0.030825], [2.24207749, -0.649844], [1.03019541, 0.02906], [0.49142269, 0.758049], [0.21727354, 0.174218], [0.10003285, -0.465169], [0.04583255, -0.346161], [0.02097146, -0.046508]], [2, [23.41055103, -0.010193], [9.57667856, 0.070326], [5.80916551, -0.45629], [2.24207749, -0.797936], [1.03019541, 1.519518], [0.49142269, -0.34248], [0.21727354, -0.705581], [0.10003285, 0.222964], [0.04583255, 0.392544], [0.02097146, 0.055526]], [2, [0.02097146, 1.0]], [2, [0.00959584, 1.0]], [3, [2.307831, 1.0]], [3, [0.808322, 1.0]], [3, [0.283115, 1.0]], [3, [0.0991611, 1.0]], [4, [2.421709, 1.0]], [4, [0.898168, 1.0]], [4, [0.33311423, 1.0]], [5, [2.103991, 1.0]], [5, [0.78033213, 1.0]]], 'O': [[0, [57.663349, -0.002794], [35.726816, 0.023976], [22.453757, -0.115974], [14.732301, 0.288033], [9.739917, -0.274786], [5.042008, -0.083789], [2.157818, 0.063778], [1.002916, 0.410182], [0.421839, 0.504044], [0.173041, 0.172152]], [0, [1.70747, 1.0]], [0, [0.617491, 1.0]], [0, [0.223309, 1.0]], [0, [0.084592, 1.0]], [1, [52.47406, -0.000522], [32.138432, 0.004857], [19.458579, -0.027749], [11.839344, 0.074258], [7.91003, 0.014369], [3.670858, 0.153479], [1.53966, 0.283685], [0.647119, 0.358201], [0.267853, 0.29559], [0.107198, 0.104889]], [1, [1.345435, 1.0]], [1, [0.458358, 1.0]], [1, [0.156151, 1.0]], [1, [0.045837, 1.0]], [2, [3.661538, 1.0]], [2, [1.279275, 1.0]], [2, [0.446952, 1.0]], [2, [0.148191, 1.0]], [3, [2.598839, 1.0]], [3, [0.849032, 1.0]], [3, [0.310222, 1.0]], [4, [1.838653, 1.0]], [4, [0.706784, 1.0]]]}
ecp = {'Sc': [10, [[-1, [[], [[8.68432435, 11.0]], [[12.96081047, 1293.12711495], [3.42726018, -59.34807006], [13.92649869, -6626.33658022], [14.1135521, 5365.4170824]], [[3.87834215, 95.52756785]]]], [0, [[], [], [[14.11432286, -1492.86349923], [4.42835597, 1499.37242], [7.46045566, 1088.20049735], [10.23533878, -1981.91696501], [4.52489587, -1710.45115474], [13.07885945, 2625.43810581]], []]], [1, [[], [], [[9.83997641, -2070.12504374], [7.25072068, 5801.02991534], [11.81974746, 1554.97375552], [14.07433272, -853.69420879], [7.08460322, -4878.01776292], [14.07166426, 462.12967346]], []]], [2, [[], [], [[11.29849449, -570.2795343], [5.72119848, -549.4382461], [6.53234086, 1672.92599442], [8.11431019, -2704.80905453], [9.9572828, 4666.19773963], [10.24029445, -2524.96335631]], []]]]], 'O': [2, [[-1, [[], [[10.27717748, 6.0]], [[15.99566749, 1232.50197768], [10.46901775, -696.47008301], [14.6384801, -2654.22657081], [12.57591181, 2101.67732548]], [[7.77739102, 61.66306486]]]], [0, [[], [], [[12.39426073, -656683.37638839], [12.38126171, 657858.57667068], [8.57671033, 511.50098405], [9.89256508, -2579.54665641], [28.05641604, -57.68129584], [17.24753607, 970.30940152]], []]], [1, [[], [], [[14.78918914, -363027.24258186], [14.82014018, 361852.52314043], [22.89622221, -1300.20069256], [8.51331893, -181.96869573], [11.48609758, 2194.87589959], [27.22017524, 451.19906206]], []]]]]}
CPU time:         0.59


******** <class 'pyscf.scf.rohf.ROHF'> flags ********
method = ROHF
initial guess = minao
damping factor = 0
level shift factor = 1000.0
DIIS = <class 'pyscf.scf.diis.CDIIS'>
DIIS start cycle = 1
DIIS space = 8
SCF tol = 1e-09
SCF gradient tol = None
max. SCF cycles = 50
direct_scf = True
direct_scf_tol = 1e-13
chkfile to save SCF result = /projects/bamu3429/BENCHMARK/fresh_atoms/MRPT/vqz/monoxides/ScO/tmp6zbndb
max_memory 4000 MB (current use 85 MB)
num. doubly occ = 8  num. singly occ = 1
Set gradient conv threshold to 3.16228e-05
init E= -61.8355404485157
  HOMO = 499.880882826501  LUMO = 1000.01118706325
cycle= 1 E= -61.8355404485162  delta_E= -4.55e-13  |g|= 1.41e-05  |ddm|= 5.31e-08
  HOMO = -0.119117174126791  LUMO = 0.0111870631195274
Extra cycle  E= -61.835540448778  delta_E= -2.62e-10  |g|= 3.54e-06  |ddm|= 4.77e-05
converged SCF energy = -61.835540448778
**** MO energy ****
                Roothaan           | alpha              | beta
MO #1   energy= -2.65040221052694  | -2.65503344286552  | -2.64577097732857  occ= 2
MO #2   energy= -1.6619445987561   | -1.66700211601267  | -1.65688707303195  occ= 2
MO #3   energy= -1.62682852725514  | -1.62914208435926  | -1.62451497015103  occ= 2
MO #4   energy= -1.62682852725514  | -1.62914208435925  | -1.62451497015103  occ= 2
MO #5   energy= -1.11750534135628  | -1.11853015551647  | -1.11648052634253  occ= 2
MO #6   energy= -0.429805810552133 | -0.431319855187926 | -0.42829169845139  occ= 2
MO #7   energy= -0.420710047981697 | -0.421423826638872 | -0.41999626932452  occ= 2
MO #8   energy= -0.420710047981697 | -0.421423826638873 | -0.419996269324522 occ= 2
MO #9   energy= -0.119117174126791 | -0.247887658876917 | 0.0096526046008305 occ= 1
MO #10  energy= 0.0111870631195274 | 0.00449052181936031 | 0.0178836044196968 occ= 0
MO #11  energy= 0.011187063119528  | 0.00449052181935969 | 0.0178836044196959 occ= 0
MO #12  energy= 0.0154059285706306 | 0.0139453721608001 | 0.0168666038348164 occ= 0
MO #13  energy= 0.0222080983191859 | 0.0210678783472413 | 0.0233483142243332 occ= 0
MO #14  energy= 0.0280022654387685 | 0.0278516350020858 | 0.028152895875451  occ= 0
MO #15  energy= 0.0280022654387685 | 0.0278516350020857 | 0.0281528958754509 occ= 0
MO #16  energy= 0.0316002054830964 | 0.0312862495709202 | 0.0319141613952767 occ= 0
MO #17  energy= 0.0316002054830977 | 0.0312862495709212 | 0.0319141613952758 occ= 0
MO #18  energy= 0.0361845153666506 | 0.0360863384114896 | 0.0362826918481127 occ= 0
MO #19  energy= 0.0435792371882867 | 0.0320324606360295 | 0.0551260137405459 occ= 0
MO #20  energy= 0.0435792371882872 | 0.0320324606360295 | 0.0551260137405455 occ= 0
MO #21  energy= 0.0592751132302182 | 0.0492599881312483 | 0.0692902526069171 occ= 0
MO #22  energy= 0.0742951958490535 | 0.0696899517055311 | 0.078900439992575  occ= 0
MO #23  energy= 0.0742951958490683 | 0.069689951705549  | 0.0789004399925873 occ= 0
MO #24  energy= 0.0899410655160573 | 0.0889480837873717 | 0.0909340472447437 occ= 0
MO #25  energy= 0.0899410655160837 | 0.0889480837873981 | 0.0909340472447681 occ= 0
MO #26  energy= 0.100022753904129  | 0.0956857947370003 | 0.104359815634309  occ= 0
MO #27  energy= 0.113264464287062  | 0.110616554717719  | 0.115912489287586  occ= 0
MO #28  energy= 0.132472485018209  | 0.127370434942704  | 0.137574535093712  occ= 0
MO #29  energy= 0.132472485018227  | 0.12737043494272   | 0.137574535093734  occ= 0
MO #30  energy= 0.152505756827654  | 0.141952289539819  | 0.163059224115489  occ= 0
MO #31  energy= 0.1525057568277    | 0.141952289539865  | 0.163059224115538  occ= 0
MO #32  energy= 0.155233267119601  | 0.14630751531261   | 0.164159242344301  occ= 0
MO #33  energy= 0.210301251416095  | 0.209176469551962  | 0.211426033280229  occ= 0
MO #34  energy= 0.210301251416237  | 0.209176469552104  | 0.211426033280361  occ= 0
MO #35  energy= 0.226392803083193  | 0.220699071072339  | 0.232086535094048  occ= 0
MO #36  energy= 0.226392803083274  | 0.220699071072425  | 0.23208653509412   occ= 0
MO #37  energy= 0.234019766436403  | 0.231850650811644  | 0.236188889964553  occ= 0
MO #38  energy= 0.326643054891254  | 0.32242727918408   | 0.330858826136194  occ= 0
MO #39  energy= 0.360026512071414  | 0.352839307505264  | 0.367213716637563  occ= 0
MO #40  energy= 0.360026512071417  | 0.352839307505264  | 0.367213716637568  occ= 0
MO #41  energy= 0.360202992109534  | 0.354933071737494  | 0.365472912481573  occ= 0
MO #42  energy= 0.360202992109534  | 0.354933071737494  | 0.365472912481573  occ= 0
MO #43  energy= 0.364781392479007  | 0.357654895533458  | 0.371907889424555  occ= 0
MO #44  energy= 0.364781392479015  | 0.357654895533468  | 0.371907889424565  occ= 0
MO #45  energy= 0.376157185856584  | 0.366674812716848  | 0.385639554380442  occ= 0
MO #46  energy= 0.416018503861174  | 0.41257360049044   | 0.419463407231905  occ= 0
MO #47  energy= 0.416018503861243  | 0.41257360049051   | 0.419463407231975  occ= 0
MO #48  energy= 0.462905272991991  | 0.458671351921611  | 0.467139194062351  occ= 0
MO #49  energy= 0.462905272992066  | 0.458671351921672  | 0.467139194062444  occ= 0
MO #50  energy= 0.485672162854816  | 0.478376313599868  | 0.492968046599526  occ= 0
MO #51  energy= 0.507431379112393  | 0.502654989487872  | 0.51220777977301   occ= 0
MO #52  energy= 0.647928724091623  | 0.645939772520555  | 0.649917675662691  occ= 0
MO #53  energy= 0.647928724091665  | 0.6459397725206    | 0.649917675662729  occ= 0
MO #54  energy= 0.648074136868282  | 0.646977416226132  | 0.649170857510433  occ= 0
MO #55  energy= 0.648074136868291  | 0.646977416226139  | 0.649170857510444  occ= 0
MO #56  energy= 0.649084717620045  | 0.648045252968021  | 0.650124184272334  occ= 0
MO #57  energy= 0.779114367431352  | 0.776608510494986  | 0.781620224367716  occ= 0
MO #58  energy= 0.779114367431372  | 0.776608510495004  | 0.781620224367729  occ= 0
MO #59  energy= 0.941420866617429  | 0.940255281123812  | 0.942586452449536  occ= 0
MO #60  energy= 0.968765932996388  | 0.964824675213425  | 0.97270720067589   occ= 0
MO #61  energy= 1.08462335460958   | 1.07923415915172   | 1.09001255006745   occ= 0
MO #62  energy= 1.08462335460958   | 1.07923415915172   | 1.09001255006745   occ= 0
MO #63  energy= 1.08654524620318   | 1.08210010935952   | 1.09099038304683   occ= 0
MO #64  energy= 1.08654524620326   | 1.0821001093596    | 1.09099038304693   occ= 0
MO #65  energy= 1.08863814752272   | 1.08405794002019   | 1.09321835502524   occ= 0
MO #66  energy= 1.08863814752273   | 1.08405794002021   | 1.09321835502525   occ= 0
MO #67  energy= 1.15130047163837   | 1.14550036726565   | 1.15710057601108   occ= 0
MO #68  energy= 1.1513004716384    | 1.14550036726568   | 1.15710057601111   occ= 0
MO #69  energy= 1.24100363049823   | 1.23235162398371   | 1.249655640797     occ= 0
MO #70  energy= 1.33044683468964   | 1.32853559612952   | 1.33235807324975   occ= 0
MO #71  energy= 1.33044683468964   | 1.32853559612952   | 1.33235807324975   occ= 0
MO #72  energy= 1.42605491022756   | 1.42194368799482   | 1.43016613224321   occ= 0
MO #73  energy= 1.47138896999966   | 1.46715813203748   | 1.47561980796185   occ= 0
MO #74  energy= 1.47138896999968   | 1.4671581320375    | 1.47561980796186   occ= 0
MO #75  energy= 1.49594355816988   | 1.49086834624819   | 1.50101877009157   occ= 0
MO #76  energy= 1.49594355816988   | 1.4908683462482    | 1.50101877009157   occ= 0
MO #77  energy= 1.49755455967345   | 1.49502408593671   | 1.50008503341019   occ= 0
MO #78  energy= 1.49755455967346   | 1.49502408593671   | 1.5000850334102    occ= 0
MO #79  energy= 1.59171720439118   | 1.58913273704293   | 1.59430167173943   occ= 0
MO #80  energy= 1.59171720439118   | 1.58913273704293   | 1.59430167173943   occ= 0
MO #81  energy= 1.66823792483573   | 1.66680432891447   | 1.66967152075699   occ= 0
MO #82  energy= 1.66823792483574   | 1.66680432891448   | 1.66967152075699   occ= 0
MO #83  energy= 1.67278185459523   | 1.67187635194925   | 1.67368735666913   occ= 0
MO #84  energy= 1.68801938484139   | 1.6846511832366    | 1.69138758644619   occ= 0
MO #85  energy= 1.6880193848414    | 1.6846511832366    | 1.69138758644619   occ= 0
MO #86  energy= 1.7504081407837    | 1.74744561040309   | 1.75337067151947   occ= 0
MO #87  energy= 1.75996793021187   | 1.75732038807459   | 1.76261547234916   occ= 0
MO #88  energy= 1.75996793021188   | 1.7573203880746    | 1.76261547234916   occ= 0
MO #89  energy= 1.95885460030108   | 1.95623579174875   | 1.96147340853984   occ= 0
MO #90  energy= 1.96671408855322   | 1.96463532935153   | 1.96879284775491   occ= 0
MO #91  energy= 1.96671408855326   | 1.96463532935157   | 1.96879284775494   occ= 0
MO #92  energy= 2.25760993368507   | 2.25565326458839   | 2.2595666023292    occ= 0
MO #93  energy= 2.26851923987567   | 2.26668594583647   | 2.27035253391486   occ= 0
MO #94  energy= 2.26851923987569   | 2.2666859458365    | 2.27035253391489   occ= 0
MO #95  energy= 2.5341747997258    | 2.53343661206083   | 2.53491298739077   occ= 0
MO #96  energy= 2.53417479972596   | 2.533436612061     | 2.53491298739092   occ= 0
MO #97  energy= 2.61928202422724   | 2.61765848122335   | 2.62090556541397   occ= 0
MO #98  energy= 2.91992371815129   | 2.91868615618477   | 2.92116128011781   occ= 0
MO #99  energy= 2.91992371815129   | 2.91868615618477   | 2.9211612801178    occ= 0
MO #100 energy= 2.9328672747873    | 2.93146228167492   | 2.93427226789968   occ= 0
MO #101 energy= 2.93286727478736   | 2.93146228167498   | 2.93427226789973   occ= 0
MO #102 energy= 2.93515378447119   | 2.93402346984089   | 2.9362840991015    occ= 0
MO #103 energy= 2.93515378447122   | 2.93402346984092   | 2.93628409910153   occ= 0
MO #104 energy= 2.9391543534699    | 2.93747563457871   | 2.94083307263408   occ= 0
MO #105 energy= 3.13566680075256   | 3.13480361740944   | 3.1365299840957    occ= 0
MO #106 energy= 3.13566680075262   | 3.13480361740949   | 3.13652998409575   occ= 0
MO #107 energy= 3.68084261727478   | 3.68065613258262   | 3.68102910196696   occ= 0
MO #108 energy= 3.68084261727479   | 3.68065613258261   | 3.68102910196695   occ= 0
MO #109 energy= 3.69052956676388   | 3.6899593664588    | 3.69109976706897   occ= 0
MO #110 energy= 3.69052956676389   | 3.6899593664588    | 3.69109976706897   occ= 0
MO #111 energy= 3.72407205692867   | 3.72153144504256   | 3.72661266881479   occ= 0
MO #112 energy= 3.7240720569287    | 3.72153144504258   | 3.72661266881482   occ= 0
MO #113 energy= 3.81733105573293   | 3.81673477201276   | 3.8179273394531    occ= 0
MO #114 energy= 3.81733105573294   | 3.81673477201277   | 3.81792733945311   occ= 0
MO #115 energy= 3.84423812255621   | 3.84292820769266   | 3.84554803718142   occ= 0
MO #116 energy= 4.01746862289048   | 4.01649679334403   | 4.01844045243693   occ= 0
MO #117 energy= 4.01746862289048   | 4.01649679334403   | 4.01844045243693   occ= 0
MO #118 energy= 4.0908095325725    | 4.08766672856218   | 4.09395233707019   occ= 0
MO #119 energy= 4.11807402476473   | 4.11796503995005   | 4.11818300957937   occ= 0
MO #120 energy= 4.11807402476473   | 4.11796503995008   | 4.11818300957939   occ= 0
MO #121 energy= 4.13675236937482   | 4.13621238729489   | 4.13729235154431   occ= 0
MO #122 energy= 4.26206041468973   | 4.26180570894357   | 4.26231512043591   occ= 0
MO #123 energy= 4.26206041468977   | 4.2618057089436    | 4.26231512043594   occ= 0
MO #124 energy= 4.29926231050097   | 4.29902858476003   | 4.29949603624192   occ= 0
MO #125 energy= 4.29926231050099   | 4.29902858476004   | 4.29949603624193   occ= 0
MO #126 energy= 4.31240191743439   | 4.31031526366851   | 4.31448857120028   occ= 0
MO #127 energy= 4.3124019174344    | 4.31031526366851   | 4.31448857120028   occ= 0
MO #128 energy= 4.38146903883332   | 4.37987657247687   | 4.38306150518977   occ= 0
MO #129 energy= 4.38146903883332   | 4.37987657247687   | 4.38306150518977   occ= 0
MO #130 energy= 4.38692147633836   | 4.38567082535426   | 4.38817212732246   occ= 0
MO #131 energy= 4.38692147633837   | 4.38567082535427   | 4.38817212732247   occ= 0
MO #132 energy= 4.40083163575445   | 4.39976564853006   | 4.40189762297199   occ= 0
MO #133 energy= 4.45337823387044   | 4.45245758486929   | 4.45429888287156   occ= 0
MO #134 energy= 4.45337823387044   | 4.4524575848693    | 4.45429888287158   occ= 0
MO #135 energy= 4.46334889309404   | 4.46213530310225   | 4.46456248308582   occ= 0
MO #136 energy= 4.46334889309404   | 4.46213530310225   | 4.46456248308582   occ= 0
MO #137 energy= 4.52162403521554   | 4.52111465393676   | 4.52213341649432   occ= 0
MO #138 energy= 4.52162403521555   | 4.52111465393677   | 4.52213341649433   occ= 0
MO #139 energy= 4.65525042073264   | 4.65436976512731   | 4.65613107633795   occ= 0
MO #140 energy= 4.65525042073265   | 4.65436976512732   | 4.65613107633797   occ= 0
MO #141 energy= 4.79020334147797   | 4.78916937051148   | 4.79123731244447   occ= 0
MO #142 energy= 4.79020334147797   | 4.78916937051148   | 4.79123731244447   occ= 0
MO #143 energy= 4.85722497638518   | 4.85672542462575   | 4.85772452823116   occ= 0
MO #144 energy= 4.97341136057445   | 4.97266299011152   | 4.97415973101524   occ= 0
MO #145 energy= 4.97784654951884   | 4.97702350922159   | 4.97866958981611   occ= 0
MO #146 energy= 4.97784654951886   | 4.9770235092216    | 4.97866958981612   occ= 0
MO #147 energy= 5.21014914435743   | 5.20923628348941   | 5.21106200527987   occ= 0
MO #148 energy= 5.42864162612547   | 5.42807988669835   | 5.42920336555261   occ= 0
MO #149 energy= 5.42864162612549   | 5.42807988669835   | 5.42920336555261   occ= 0
MO #150 energy= 5.68880262869909   | 5.68811968040873   | 5.68948557698942   occ= 0
MO #151 energy= 5.68880262869911   | 5.68811968040876   | 5.68948557698946   occ= 0
MO #152 energy= 5.71153046573341   | 5.7109390032135    | 5.71212192825332   occ= 0
MO #153 energy= 5.71153046573341   | 5.71093900321349   | 5.71212192825331   occ= 0
MO #154 energy= 6.4341054347397    | 6.43272965701092   | 6.43548121252266   occ= 0
MO #155 energy= 6.65941917324381   | 6.65844966101542   | 6.6603886854722    occ= 0
MO #156 energy= 6.65941917324386   | 6.65844966101545   | 6.66038868547224   occ= 0
MO #157 energy= 6.7959334140308    | 6.79459530460656   | 6.7972715235296    occ= 0
MO #158 energy= 7.57892148665394   | 7.5773684151008    | 7.58047455831217   occ= 0
MO #159 energy= 7.83488841435426   | 7.83415677356848   | 7.83562005514004   occ= 0
MO #160 energy= 7.83488841435426   | 7.83415677356848   | 7.83562005514004   occ= 0
MO #161 energy= 7.91787369247312   | 7.91660652571752   | 7.91914085922872   occ= 0
MO #162 energy= 7.91787369247314   | 7.91660652571755   | 7.91914085922875   occ= 0
MO #163 energy= 8.43420488176343   | 8.4326702248796    | 8.43573953864726   occ= 0
MO #164 energy= 8.43420488176351   | 8.43267022487967   | 8.43573953864734   occ= 0
MO #165 energy= 9.07643498976442   | 9.0753254545033    | 9.07754452501585   occ= 0
MO #166 energy= 9.67359764215747   | 9.67334256867716   | 9.67385271563779   occ= 0
MO #167 energy= 9.67359764215823   | 9.67334256867793   | 9.67385271563852   occ= 0
MO #168 energy= 10.2103043025267   | 10.2092508434635   | 10.2113577615899   occ= 0
MO #169 energy= 10.2103043025267   | 10.2092508434635   | 10.21135776159     occ= 0
MO #170 energy= 10.6256304270698   | 10.6255047114461   | 10.6257561426872   occ= 0
MO #171 energy= 10.6746914485932   | 10.674661201284    | 10.6747216959022   occ= 0
MO #172 energy= 10.6746914485932   | 10.6746612012841   | 10.6747216959023   occ= 0
MO #173 energy= 10.7489961266902   | 10.7460844020802   | 10.7519078513696   occ= 0
MO #174 energy= 10.776832103229    | 10.7767745840061   | 10.776889622452    occ= 0
MO #175 energy= 10.776832103229    | 10.7767745840061   | 10.776889622452    occ= 0
MO #176 energy= 10.9678153517215   | 10.9676627894336   | 10.9679679140096   occ= 0
MO #177 energy= 10.9678153517216   | 10.9676627894335   | 10.9679679140095   occ= 0
MO #178 energy= 10.9757478381555   | 10.9756749410676   | 10.9758207352434   occ= 0
MO #179 energy= 10.9757478381556   | 10.9756749410677   | 10.9758207352435   occ= 0
MO #180 energy= 11.0894351229141   | 11.0890340067387   | 11.0898362390898   occ= 0
MO #181 energy= 11.6031557307845   | 11.6028881623456   | 11.6034232992234   occ= 0
MO #182 energy= 11.6031557307845   | 11.6028881623456   | 11.6034232992234   occ= 0
MO #183 energy= 11.6153031774757   | 11.614792883987    | 11.6158134709645   occ= 0
MO #184 energy= 11.6153031774758   | 11.614792883987    | 11.6158134709645   occ= 0
MO #185 energy= 11.6413185653043   | 11.6409372406781   | 11.6416998899305   occ= 0
MO #186 energy= 11.6413185653044   | 11.6409372406781   | 11.6416998899306   occ= 0
MO #187 energy= 11.7082635294334   | 11.7078201241105   | 11.7087069347564   occ= 0
MO #188 energy= 11.7082635294335   | 11.7078201241105   | 11.7087069347564   occ= 0
MO #189 energy= 11.8229112825852   | 11.8220162717972   | 11.8238062933732   occ= 0
MO #190 energy= 11.8229112825852   | 11.8220162717972   | 11.8238062933732   occ= 0
MO #191 energy= 11.8380115546153   | 11.8370298755056   | 11.8389932337259   occ= 0
MO #192 energy= 11.9365747652018   | 11.9359133403626   | 11.9372361900411   occ= 0
MO #193 energy= 11.9365747652018   | 11.9359133403625   | 11.9372361900411   occ= 0
MO #194 energy= 12.3480266717012   | 12.3474694917068   | 12.3485838516954   occ= 0
MO #195 energy= 12.5258267450501   | 12.5255725994772   | 12.5260808906231   occ= 0
MO #196 energy= 12.5258267450501   | 12.5255725994772   | 12.5260808906231   occ= 0
MO #197 energy= 12.5445459030377   | 12.5442235239256   | 12.5448682821498   occ= 0
MO #198 energy= 12.5445459030377   | 12.5442235239256   | 12.5448682821498   occ= 0
MO #199 energy= 12.6160852725441   | 12.6154515530532   | 12.616718992035    occ= 0
MO #200 energy= 12.6160852725441   | 12.6154515530532   | 12.616718992035    occ= 0
MO #201 energy= 12.6458014110384   | 12.6453121304395   | 12.6462906916373   occ= 0
MO #202 energy= 12.6458014110385   | 12.6453121304395   | 12.6462906916374   occ= 0
MO #203 energy= 12.6866773212317   | 12.6865377809543   | 12.6868168615092   occ= 0
MO #204 energy= 12.6866773212318   | 12.6865377809543   | 12.6868168615093   occ= 0
MO #205 energy= 12.8186356596582   | 12.8182125906042   | 12.8190587287122   occ= 0
MO #206 energy= 12.8186356596582   | 12.8182125906042   | 12.8190587287122   occ= 0
MO #207 energy= 12.895956723969    | 12.8954103259201   | 12.8965031220178   occ= 0
MO #208 energy= 12.895956723969    | 12.8954103259202   | 12.8965031220179   occ= 0
MO #209 energy= 13.2343316235534   | 13.2338018228681   | 13.234861424235    occ= 0
MO #210 energy= 13.2477595587414   | 13.2474550063702   | 13.2480641111127   occ= 0
MO #211 energy= 13.2477595587414   | 13.2474550063702   | 13.2480641111127   occ= 0
MO #212 energy= 13.7472900544954   | 13.7469283658399   | 13.7476517431544   occ= 0
MO #213 energy= 16.1290779987245   | 16.128618451777    | 16.1295375456794   occ= 0
MO #214 energy= 20.5153785080126   | 20.5152843242759   | 20.5154726917487   occ= 0
 ** Mulliken pop on meta-lowdin orthogonal AOs  **
 ** Mulliken pop  **
pop of  0Sc 3s        1.99924
pop of  0Sc 4s        0.88797
pop of  0Sc 5s        0.00386
pop of  0Sc 6s        0.00194
pop of  0Sc 7s        0.00024
pop of  0Sc 8s        0.00098
pop of  0Sc 9s        0.00080
pop of  0Sc 3px       1.99901
pop of  0Sc 3py       1.99901
pop of  0Sc 3pz       1.99508
pop of  0Sc 4px       0.00804
pop of  0Sc 4py       0.00804
pop of  0Sc 4pz       0.06586
pop of  0Sc 5px       0.00018
pop of  0Sc 5py       0.00018
pop of  0Sc 5pz       0.00721
pop of  0Sc 6px       0.00006
pop of  0Sc 6py       0.00006
pop of  0Sc 6pz       0.00197
pop of  0Sc 7px       0.00004
pop of  0Sc 7py       0.00004
pop of  0Sc 7pz       0.00081
pop of  0Sc 8px       0.00077
pop of  0Sc 8py       0.00077
pop of  0Sc 8pz       0.01941
pop of  0Sc 9px       0.00006
pop of  0Sc 9py       0.00006
pop of  0Sc 9pz       0.00265
pop of  0Sc 3dxy      0.00000
pop of  0Sc 3dyz      0.30661
pop of  0Sc 3dz^2     0.47381
pop of  0Sc 3dxz      0.30661
pop of  0Sc 3dx2-y2    0.00000
pop of  0Sc 4dxy      0.00000
pop of  0Sc 4dyz      0.00011
pop of  0Sc 4dz^2     0.01203
pop of  0Sc 4dxz      0.00011
pop of  0Sc 4dx2-y2    0.00000
pop of  0Sc 5dxy      0.00000
pop of  0Sc 5dyz      0.00021
pop of  0Sc 5dz^2     0.00261
pop of  0Sc 5dxz      0.00021
pop of  0Sc 5dx2-y2    0.00000
pop of  0Sc 6dxy      0.00000
pop of  0Sc 6dyz      0.00001
pop of  0Sc 6dz^2     0.00026
pop of  0Sc 6dxz      0.00001
pop of  0Sc 6dx2-y2    0.00000
pop of  0Sc 7dxy      0.00000
pop of  0Sc 7dyz      0.00002
pop of  0Sc 7dz^2     0.00106
pop of  0Sc 7dxz      0.00002
pop of  0Sc 7dx2-y2    0.00000
pop of  0Sc 8dxy      0.00000
pop of  0Sc 8dyz      0.00000
pop of  0Sc 8dz^2     0.00005
pop of  0Sc 8dxz      0.00000
pop of  0Sc 8dx2-y2    0.00000
pop of  0Sc 4fy^3     0.00000
pop of  0Sc 4fxyz     0.00000
pop of  0Sc 4fyz^2    0.00009
pop of  0Sc 4fz^3     0.00019
pop of  0Sc 4fxz^2    0.00009
pop of  0Sc 4fzx^2    0.00000
pop of  0Sc 4fx^3     0.00000
pop of  0Sc 5fy^3     0.00000
pop of  0Sc 5fxyz     0.00000
pop of  0Sc 5fyz^2    0.00085
pop of  0Sc 5fz^3     0.00103
pop of  0Sc 5fxz^2    0.00085
pop of  0Sc 5fzx^2    0.00000
pop of  0Sc 5fx^3     0.00000
pop of  0Sc 6fy^3     0.00000
pop of  0Sc 6fxyz     0.00000
pop of  0Sc 6fyz^2    0.00118
pop of  0Sc 6fz^3     0.00470
pop of  0Sc 6fxz^2    0.00118
pop of  0Sc 6fzx^2    0.00000
pop of  0Sc 6fx^3     0.00000
pop of  0Sc 7fy^3     0.00000
pop of  0Sc 7fxyz     0.00000
pop of  0Sc 7fyz^2    0.00049
pop of  0Sc 7fz^3     0.00235
pop of  0Sc 7fxz^2    0.00049
pop of  0Sc 7fzx^2    0.00000
pop of  0Sc 7fx^3     0.00000
pop of  0Sc 5g-4      0.00000
pop of  0Sc 5g-3      0.00000
pop of  0Sc 5g-2      0.00000
pop of  0Sc 5g-1      0.00000
pop of  0Sc 5g 0      0.00001
pop of  0Sc 5g 1      0.00000
pop of  0Sc 5g 2      0.00000
pop of  0Sc 5g 3      0.00000
pop of  0Sc 5g 4      0.00000
pop of  0Sc 6g-4      0.00000
pop of  0Sc 6g-3      0.00000
pop of  0Sc 6g-2      0.00000
pop of  0Sc 6g-1      0.00006
pop of  0Sc 6g 0      0.00009
pop of  0Sc 6g 1      0.00006
pop of  0Sc 6g 2      0.00000
pop of  0Sc 6g 3      0.00000
pop of  0Sc 6g 4      0.00000
pop of  0Sc 7g-4      0.00000
pop of  0Sc 7g-3      0.00000
pop of  0Sc 7g-2      0.00000
pop of  0Sc 7g-1      0.00001
pop of  0Sc 7g 0      0.00160
pop of  0Sc 7g 1      0.00001
pop of  0Sc 7g 2      0.00000
pop of  0Sc 7g 3      0.00000
pop of  0Sc 7g 4      0.00000
pop of  0Sc 6h-5      0.00000
pop of  0Sc 6h-4      0.00000
pop of  0Sc 6h-3      0.00000
pop of  0Sc 6h-2      0.00000
pop of  0Sc 6h-1      0.00000
pop of  0Sc 6h 0      0.00000
pop of  0Sc 6h 1      0.00000
pop of  0Sc 6h 2      0.00000
pop of  0Sc 6h 3      0.00000
pop of  0Sc 6h 4      0.00000
pop of  0Sc 6h 5      0.00000
pop of  0Sc 7h-5      0.00000
pop of  0Sc 7h-4      0.00000
pop of  0Sc 7h-3      0.00000
pop of  0Sc 7h-2      0.00000
pop of  0Sc 7h-1      0.00001
pop of  0Sc 7h 0      0.00021
pop of  0Sc 7h 1      0.00001
pop of  0Sc 7h 2      0.00000
pop of  0Sc 7h 3      0.00000
pop of  0Sc 7h 4      0.00000
pop of  0Sc 7h 5      0.00000
pop of  1O 2s        1.84622
pop of  1O 3s        0.00212
pop of  1O 4s        0.00041
pop of  1O 5s        0.00704
pop of  1O 6s        0.01886
pop of  1O 2px       1.66748
pop of  1O 2py       1.66748
pop of  1O 2pz       1.61840
pop of  1O 3px       0.00086
pop of  1O 3py       0.00086
pop of  1O 3pz       0.00044
pop of  1O 4px       0.00033
pop of  1O 4py       0.00033
pop of  1O 4pz       0.00079
pop of  1O 5px       0.00460
pop of  1O 5py       0.00460
pop of  1O 5pz       0.00190
pop of  1O 6px       0.00234
pop of  1O 6py       0.00234
pop of  1O 6pz       0.00527
pop of  1O 3dxy      0.00000
pop of  1O 3dyz      0.00007
pop of  1O 3dz^2     0.00010
pop of  1O 3dxz      0.00007
pop of  1O 3dx2-y2    0.00000
pop of  1O 4dxy      0.00000
pop of  1O 4dyz      0.00087
pop of  1O 4dz^2     0.00116
pop of  1O 4dxz      0.00087
pop of  1O 4dx2-y2    0.00000
pop of  1O 5dxy      0.00000
pop of  1O 5dyz      0.00274
pop of  1O 5dz^2     0.00231
pop of  1O 5dxz      0.00274
pop of  1O 5dx2-y2    0.00000
pop of  1O 6dxy      0.00000
pop of  1O 6dyz      0.00268
pop of  1O 6dz^2     0.00557
pop of  1O 6dxz      0.00268
pop of  1O 6dx2-y2    0.00000
pop of  1O 4fy^3     0.00000
pop of  1O 4fxyz     0.00000
pop of  1O 4fyz^2    0.00001
pop of  1O 4fz^3     0.00002
pop of  1O 4fxz^2    0.00001
pop of  1O 4fzx^2    0.00000
pop of  1O 4fx^3     0.00000
pop of  1O 5fy^3     0.00000
pop of  1O 5fxyz     0.00000
pop of  1O 5fyz^2    0.00011
pop of  1O 5fz^3     0.00017
pop of  1O 5fxz^2    0.00011
pop of  1O 5fzx^2    0.00000
pop of  1O 5fx^3     0.00000
pop of  1O 6fy^3     0.00000
pop of  1O 6fxyz     0.00000
pop of  1O 6fyz^2    0.00009
pop of  1O 6fz^3     0.00106
pop of  1O 6fxz^2    0.00009
pop of  1O 6fzx^2    0.00000
pop of  1O 6fx^3     0.00000
pop of  1O 5g-4      0.00000
pop of  1O 5g-3      0.00000
pop of  1O 5g-2      0.00000
pop of  1O 5g-1      0.00000
pop of  1O 5g 0      0.00001
pop of  1O 5g 1      0.00000
pop of  1O 5g 2      0.00000
pop of  1O 5g 3      0.00000
pop of  1O 5g 4      0.00000
pop of  1O 6g-4      0.00000
pop of  1O 6g-3      0.00000
pop of  1O 6g-2      0.00000
pop of  1O 6g-1      0.00000
pop of  1O 6g 0      0.00013
pop of  1O 6g 1      0.00000
pop of  1O 6g 2      0.00000
pop of  1O 6g 3      0.00000
pop of  1O 6g 4      0.00000
 ** Mulliken atomic charges  **
charge of  0Sc =      0.87635
charge of  1O =     -0.87635

******** <class 'pyscf.mcscf.mc1step.CASSCF'> flags ********
CAS (4e+3e, 9o), ncore = 5, nvir = 200
max_cycle_macro = 50
max_cycle_micro = 4
conv_tol = 1e-07
conv_tol_grad = None
orbital rotation max_stepsize = 0.02
augmented hessian ah_max_cycle = 30
augmented hessian ah_conv_tol = 1e-12
augmented hessian ah_linear dependence = 1e-14
augmented hessian ah_level shift = 0
augmented hessian ah_start_tol = 2.5
augmented hessian ah_start_cycle = 3
augmented hessian ah_grad_trust_region = 3
kf_trust_region = 3
kf_interval = 4
ci_response_space = 4
ci_grad_trust_region = 3
with_dep4 0
natorb = False
canonicalization = True
chkfile = ./scratch/3149/tmp3V1G0g
max_memory 4000 MB (current use 2218 MB)
internal_rotation = False

******** SHCI flags ********
executable             = /home/bamu3429/softwares/dice/Dice
mpiprefix              = mpirun -np 28
scratchDirectory       = ./scratch/3149
integralFile           = ./FCIDUMP
configFile             = ./input.dat
outputFile             = ./output.dat
maxIter                = 6
sweep_iter             = []
sweep_epsilon          = []
nPTiter                = 0
Stochastic             = True
fullrestart            = False
restart                = False
num_thrds              = 12
memory                 = None

CASCI E = -61.8355449430171  S^2 = 0.7500000
Set conv_tol_grad to 0.000316228
macro iter 1 (7 JK  2 micro), CASSCF E = -61.8355605704031  dE = -1.5627386e-05  S^2 = 0.7500000
               |grad[o]|=5.19e-05  |grad[c]|= None  |ddm|=0.0058
macro iter 2 (7 JK  2 micro), CASSCF E = -61.8356207549466  dE = -6.0184544e-05  S^2 = 0.7500000
               |grad[o]|=0.00016  |grad[c]|= None  |ddm|=0.000722
macro iter 3 (7 JK  2 micro), CASSCF E = -61.8359242452747  dE = -0.00030349033  S^2 = 0.7500000
               |grad[o]|=0.000916  |grad[c]|= None  |ddm|=0.00484
macro iter 4 (21 JK  4 micro), CASSCF E = -61.8459574549403  dE = -0.01003321  S^2 = 0.7500000
               |grad[o]|=0.00389  |grad[c]|= None  |ddm|=0.0266
macro iter 5 (21 JK  4 micro), CASSCF E = -61.8577625691268  dE = -0.011805114  S^2 = 0.7500000
               |grad[o]|=0.0319  |grad[c]|= None  |ddm|=0.0394
macro iter 6 (21 JK  4 micro), CASSCF E = -61.9014287127601  dE = -0.043666144  S^2 = 0.7500000
               |grad[o]|=0.0423  |grad[c]|= None  |ddm|=0.037
macro iter 7 (21 JK  4 micro), CASSCF E = -61.9517374110883  dE = -0.050308698  S^2 = 0.7500000
               |grad[o]|=0.0809  |grad[c]|= None  |ddm|=0.0299
macro iter 8 (21 JK  4 micro), CASSCF E = -61.9677277188172  dE = -0.015990308  S^2 = 0.7500000
               |grad[o]|=0.0499  |grad[c]|= None  |ddm|=0.0295
macro iter 9 (21 JK  4 micro), CASSCF E = -61.9698219646012  dE = -0.0020942458  S^2 = 0.7500000
               |grad[o]|=0.00805  |grad[c]|= None  |ddm|=0.00488
macro iter 10 (21 JK  4 micro), CASSCF E = -61.971261682953  dE = -0.0014397184  S^2 = 0.7500000
               |grad[o]|=0.00621  |grad[c]|= None  |ddm|=0.00461
macro iter 11 (17 JK  4 micro), CASSCF E = -61.9714172161782  dE = -0.00015553323  S^2 = 0.7500000
               |grad[o]|=0.00367  |grad[c]|= None  |ddm|=0.0131
macro iter 12 (18 JK  4 micro), CASSCF E = -61.9714349550254  dE = -1.7738847e-05  S^2 = 0.7500000
               |grad[o]|=0.00172  |grad[c]|= None  |ddm|=0.00293
macro iter 13 (16 JK  4 micro), CASSCF E = -61.97145941201  dE = -2.4456985e-05  S^2 = 0.7500000
               |grad[o]|=0.00052  |grad[c]|= None  |ddm|=0.00259
macro iter 14 (17 JK  4 micro), CASSCF E = -61.9715770045112  dE = -0.0001175925  S^2 = 0.7500000
               |grad[o]|=0.00077  |grad[c]|= None  |ddm|=0.00572
macro iter 15 (13 JK  4 micro), CASSCF E = -61.9717836009933  dE = -0.00020659648  S^2 = 0.7500000
               |grad[o]|=0.00188  |grad[c]|= None  |ddm|=0.00835
macro iter 16 (12 JK  4 micro), CASSCF E = -61.971769785947  dE = 1.3815046e-05  S^2 = 0.7500000
               |grad[o]|=0.00162  |grad[c]|= None  |ddm|=0.00274
macro iter 17 (17 JK  4 micro), CASSCF E = -61.9720140601215  dE = -0.00024427417  S^2 = 0.7500000
               |grad[o]|=0.000692  |grad[c]|= None  |ddm|=0.00384
macro iter 18 (21 JK  4 micro), CASSCF E = -61.9746177345415  dE = -0.0026036744  S^2 = 0.7500000
               |grad[o]|=0.00127  |grad[c]|= None  |ddm|=0.00409
macro iter 19 (18 JK  4 micro), CASSCF E = -61.9754391307965  dE = -0.00082139626  S^2 = 0.7500000
               |grad[o]|=0.0032  |grad[c]|= None  |ddm|=0.00617
macro iter 20 (13 JK  4 micro), CASSCF E = -61.975442304839  dE = -3.1740425e-06  S^2 = 0.7500000
               |grad[o]|=0.000951  |grad[c]|= None  |ddm|=0.00174
macro iter 21 (3 JK  1 micro), CASSCF E = -61.9754423197715  dE = -1.493256e-08  S^2 = 0.7500000
               |grad[o]|=0.000121  |grad[c]|= None  |ddm|=9.15e-05
1-step CASSCF converged in 21 macro (333 JK 75 micro) steps
CASSCF canonicalization
CASSCF energy = -61.9754423197715


--------------------------------------------------
                 ICMPSPT CALCULATION              
--------------------------------------------------

Perturbation type: MRLCC
With fully internally contracted scheme
With third order correction

Preparing necessary RDMs
......production of RDMs took      34.22 sec
Reading binary 4RDM from DICE
......reading the RDM took         28.07 sec

(GOOD) Trace 4RDM:    840.0 =    7*    6*    5*    4
(GOOD) Trace 3RDM:    210.0 =    7*    6*    5
(GOOD) Trace 2RDM:     42.0 =    7*    6
(GOOD) Trace 1RDM:      7.0 =    7

Producing the integrals
......production of INT took    3602.87 sec

Energy_core =  -70.2089464125
Energy      =  -61.9754423198

WARNING: Have to use natural orbitals from CAASCF
         offdiagonal elements: 0.912837217414

Basic ingredients written to int/
......savings of INGREDIENTS took     788.06 sec

Second-order:
perturber CCVV --        -0.215031832
perturber CCAV --        -0.065479050
perturber ACVV --        -0.101195039
perturber CCAA --        -0.019673744
perturber AAVV --        -0.077797812
perturber CAAV --        -0.084326199
terminate called after throwing an instance of 'std::runtime_error'
  what():  No convergence!
/bin/sh: line 1:  8261 Aborted                 /projects/bamu3429/softwares/icpt/icpt MRLCC_AAAV.inp > MRLCC_AAAV.out
Traceback (most recent call last):
  File "mrpt.py", line 56, in <module>
    do_dm4=True)
  File "/projects/bamu3429/softwares/pyscf_uptodate/pyscf/icmpspt/icmpspt.py", line 1375, in icmpspt
    cumulantE4=cumulantE4, df=df, no_handcoded_E3=no_handcoded_E3)
  File "/projects/bamu3429/softwares/pyscf_uptodate/pyscf/icmpspt/icmpspt.py", line 689, in executeMRLCC
    output = check_call("%s  %s  %s > %s"%(mpiprefix, executable, infile, outfile), shell=True)
  File "/curc/sw/python/2.7.11/lib/python2.7/subprocess.py", line 540, in check_call
    raise CalledProcessError(retcode, cmd)
subprocess.CalledProcessError: Command '  /projects/bamu3429/softwares/icpt/icpt  MRLCC_AAAV.inp > MRLCC_AAAV.out' returned non-zero exit status 134
