 &FCI NORB=9 ,NELEC=12 ,MS2=4,
  ORBSYM=1,1,1,1,1,1,1,1,1,
  ISYM=1,
 &END
  8.830071242652e-01    1  1  1  1
  5.080517797380e-03    2  1  2  1
  3.743247075577e-01    2  2  1  1
  6.317423162397e-01    2  2  2  2
  2.608524372112e-03    3  1  3  1
 -6.044414663896e-04    3  2  3  1
  3.091887756338e-02    3  2  3  2
  3.332834640889e-01    3  3  1  1
 -2.829889541186e-04    3  3  2  1
  5.895925743626e-01    3  3  2  2
  6.742059362095e-01    3  3  3  3
 -1.187806438445e-03    4  1  3  2
  2.608524372112e-03    4  1  4  1
 -1.187806438445e-03    4  2  3  1
  6.044414663896e-04    4  2  4  1
  3.091887756338e-02    4  2  4  2
 -5.559193850597e-04    4  3  2  1
  2.607554549940e-06    4  3  3  3
  3.102416247218e-02    4  3  4  3
  3.332834640889e-01    4  4  1  1
  2.829889541190e-04    4  4  2  1
  5.895925743626e-01    4  4  2  2
  6.121651996945e-01    4  4  3  3
 -2.607554549649e-06    4  4  4  3
  6.742059362095e-01    4  4  4  4
 -9.597308867372e-03    5  1  2  1
 -1.119558539015e-03    5  1  3  3
 -2.198847459003e-03    5  1  4  3
  1.119558539015e-03    5  1  4  4
  3.578327255208e-02    5  1  5  1
 -1.287025156411e-01    5  2  1  1
  3.032431139661e-02    5  2  2  2
  3.932661091908e-02    5  2  3  3
  3.932661091908e-02    5  2  4  4
  4.963700091947e-02    5  2  5  2
 -3.277699643217e-04    5  3  3  1
  5.389943745623e-03    5  3  3  2
 -6.433751624429e-04    5  3  4  1
 -7.670112414145e-08    5  3  4  2
  4.150724311899e-03    5  3  5  3
 -6.433751624428e-04    5  4  3  1
  7.670112415823e-08    5  4  3  2
  3.277699643217e-04    5  4  4  1
  5.389943745623e-03    5  4  4  2
  4.150724311899e-03    5  4  5  4
  7.576665969359e-01    5  5  1  1
  3.955789878989e-01    5  5  2  2
  3.494213093373e-01    5  5  3  3
  3.494213093373e-01    5  5  4  4
 -1.303828702820e-01    5  5  5  2
  7.807481099598e-01    5  5  5  5
  5.788099313713e-03    6  1  3  1
  3.750048470762e-04    6  1  3  2
 -4.247347883354e-03    6  1  4  1
 -2.291935704129e-03    6  1  4  2
 -2.053565739819e-04    6  1  5  3
  1.254216666269e-03    6  1  5  4
  3.334257849522e-02    6  1  6  1
  2.118415271619e-04    6  2  3  1
 -3.774386118137e-03    6  2  3  2
 -1.295918407606e-03    6  2  4  1
  2.769794193315e-03    6  2  4  2
 -1.222662975844e-03    6  2  5  3
  8.970774850243e-04    6  2  5  4
  1.791320661921e-03    6  2  6  1
  6.631453611050e-03    6  2  6  2
  9.034209984610e-02    6  3  1  1
 -1.443388543129e-04    6  3  2  1
 -3.889566280659e-02    6  3  2  2
 -6.332410783835e-02    6  3  3  3
  3.950030166131e-03    6  3  4  3
 -5.255867977563e-02    6  3  4  4
  5.495527226159e-04    6  3  5  1
 -3.346367865428e-02    6  3  5  2
  8.154908952188e-02    6  3  5  5
  3.370274252670e-02    6  3  6  3
 -6.629313360859e-02    6  4  1  1
  8.811447475871e-04    6  4  2  1
  2.854490496827e-02    6  4  2  2
  3.857112029214e-02    6  4  3  3
 -5.382774870095e-03    6  4  4  3
  4.647107700991e-02    6  4  4  4
 -3.357868787534e-03    6  4  5  1
  2.455641421753e-02    6  4  5  2
 -5.984059604500e-02    6  4  5  5
 -2.212012829193e-02    6  4  6  3
  1.978963623133e-02    6  4  6  4
 -2.945170344529e-04    6  5  3  1
 -2.870124993047e-03    6  5  3  2
  1.798593559298e-03    6  5  4  1
  2.106233962535e-03    6  5  4  2
  2.985159678760e-03    6  5  5  3
 -2.190546406360e-03    6  5  5  4
 -5.669062612483e-03    6  5  6  1
 -4.715319270600e-03    6  5  6  2
  2.224411704131e-02    6  5  6  5
  8.073926075617e-01    6  6  1  1
 -3.688016532456e-03    6  6  2  1
  4.047801502537e-01    6  6  2  2
  3.646687738736e-01    6  6  3  3
 -4.615814872984e-03    6  6  4  3
  3.617594114195e-01    6  6  4  4
  1.160738366108e-02    6  6  5  1
 -1.300337317911e-01    6  6  5  2
  7.789183183975e-01    6  6  5  5
  9.391020713837e-02    6  6  6  3
 -6.889043730723e-02    6  6  6  4
  8.687808003831e-01    6  6  6  6
  4.247347883354e-03    7  1  3  1
 -2.291935704129e-03    7  1  3  2
  5.788099313713e-03    7  1  4  1
 -3.750048470762e-04    7  1  4  2
  1.254216666269e-03    7  1  5  3
  2.053565739820e-04    7  1  5  4
 -1.756194071690e-03    7  1  6  2
  5.557647458912e-03    7  1  6  5
  3.334257849522e-02    7  1  7  1
 -1.295918407606e-03    7  2  3  1
 -2.769794193315e-03    7  2  3  2
 -2.118415271619e-04    7  2  4  1
 -3.774386118138e-03    7  2  4  2
 -8.970774850244e-04    7  2  5  3
 -1.222662975844e-03    7  2  5  4
 -1.756194071690e-03    7  2  6  1
 -2.537705950693e-08    7  2  6  5
 -1.791320661921e-03    7  2  7  1
  6.631453611050e-03    7  2  7  2
  6.629313360859e-02    7  3  1  1
  8.811447475869e-04    7  3  2  1
 -2.854490496827e-02    7  3  2  2
 -4.647107700991e-02    7  3  3  3
 -5.382774870095e-03    7  3  4  3
 -3.857112029214e-02    7  3  4  4
 -3.357868787533e-03    7  3  5  1
 -2.455641421753e-02    7  3  5  2
  5.984059604500e-02    7  3  5  5
  2.212086195556e-02    7  3  6  3
 -1.267579914645e-02    7  3  6  4
  6.144036001681e-02    7  3  6  6
  1.978963623133e-02    7  3  7  3
  9.034209984610e-02    7  4  1  1
  1.443388543127e-04    7  4  2  1
 -3.889566280659e-02    7  4  2  2
 -5.255867977563e-02    7  4  3  3
 -3.950030166131e-03    7  4  4  3
 -6.332410783835e-02    7  4  4  4
 -5.495527226159e-04    7  4  5  1
 -3.346367865428e-02    7  4  5  2
  8.154908952188e-02    7  4  5  5
  2.658493449211e-02    7  4  6  3
 -2.212086195557e-02    7  4  6  4
  8.370103857195e-02    7  4  6  6
  2.212012829193e-02    7  4  7  3
  3.370274252671e-02    7  4  7  4
  1.798593559299e-03    7  5  3  1
 -2.106233962535e-03    7  5  3  2
  2.945170344529e-04    7  5  4  1
 -2.870124993047e-03    7  5  4  2
  2.190546406360e-03    7  5  5  3
  2.985159678760e-03    7  5  5  4
  5.557647458913e-03    7  5  6  1
  2.537705956029e-08    7  5  6  2
  5.669062612483e-03    7  5  7  1
 -4.715319270600e-03    7  5  7  2
  2.224411704131e-02    7  5  7  5
  3.615408398305e-03    7  6  2  1
  4.617982126889e-03    7  6  3  3
  1.448494934777e-03    7  6  4  3
 -4.617982126888e-03    7  6  4  4
 -1.137997927189e-02    7  6  5  1
  3.752434775901e-03    7  6  6  3
  5.085595908813e-03    7  6  6  4
  1.337724487502e-04    7  6  6  6
  5.085595908813e-03    7  6  7  3
 -3.752434775901e-03    7  6  7  4
  3.312485140342e-02    7  6  7  6
  8.073926075617e-01    7  7  1  1
  3.688016532455e-03    7  7  2  1
  4.047801502537e-01    7  7  2  2
  3.617594114195e-01    7  7  3  3
  4.615814872984e-03    7  7  4  3
  3.646687738736e-01    7  7  4  4
 -1.160738366108e-02    7  7  5  1
 -1.300337317911e-01    7  7  5  2
  7.789183183975e-01    7  7  5  5
  8.370103857195e-02    7  7  6  3
 -6.144036001680e-02    7  7  6  4
  8.025430000035e-01    7  7  6  6
  6.889043730723e-02    7  7  7  3
  9.391020713837e-02    7  7  7  4
 -1.337724487496e-04    7  7  7  6
  8.687808003831e-01    7  7  7  7
  2.269703365710e-05    8  1  1  1
  4.013829379245e-06    8  1  2  2
  2.336098859322e-06    8  1  3  3
  2.336098859263e-06    8  1  4  4
 -5.189498315116e-06    8  1  5  2
  1.783775368478e-05    8  1  5  5
  6.360313939111e-07    8  1  6  3
 -5.700501272356e-06    8  1  6  4
  2.041663969701e-05    8  1  6  6
  5.700501272528e-06    8  1  7  3
  6.360313939375e-07    8  1  7  4
  2.041663969756e-05    8  1  7  7
  1.903113138034e-02    8  1  8  1
  2.217941990282e-07    8  2  2  1
  4.896547558728e-04    8  2  3  3
 -2.489844217701e-04    8  2  4  3
 -4.896547558745e-04    8  2  4  4
 -8.637033156266e-07    8  2  5  1
 -9.124257215616e-04    8  2  6  3
 -1.493317384924e-04    8  2  6  4
 -3.746722084209e-03    8  2  6  6
 -1.493317384913e-04    8  2  7  3
  9.124257215631e-04    8  2  7  4
 -3.820951293449e-03    8  2  7  6
  3.746722084215e-03    8  2  7  7
  5.175252849599e-03    8  2  8  2
 -9.968344480041e-08    8  3  3  1
  1.121656032681e-03    8  3  3  2
 -1.234004818880e-03    8  3  4  1
 -5.704931783937e-04    8  3  4  2
  5.726395894941e-04    8  3  5  3
 -2.915020254011e-04    8  3  5  4
  1.955136027421e-03    8  3  6  1
  1.266102033356e-03    8  3  6  2
 -1.791681337924e-03    8  3  6  5
 -2.664242498887e-03    8  3  7  1
  2.070714114150e-04    8  3  7  2
 -2.933764916230e-04    8  3  7  5
  2.551812932832e-03    8  3  8  3
  1.234004818881e-03    8  4  3  1
 -5.704931783936e-04    8  4  3  2
 -9.968344480212e-08    8  4  4  1
 -1.121656032681e-03    8  4  4  2
 -2.915020254011e-04    8  4  5  3
 -5.726395894942e-04    8  4  5  4
  2.664242498887e-03    8  4  6  1
  2.070714114149e-04    8  4  6  2
 -2.933764916232e-04    8  4  6  5
  1.955136027421e-03    8  4  7  1
 -1.266102033356e-03    8  4  7  2
  1.791681337924e-03    8  4  7  5
  2.551812932832e-03    8  4  8  4
 -7.599311611183e-07    8  5  2  1
  2.137812104053e-03    8  5  3  3
 -1.088162019754e-03    8  5  4  3
 -2.137812104054e-03    8  5  4  4
  4.101787162642e-08    8  5  5  1
  3.391034107082e-03    8  5  6  3
  5.551201310357e-04    8  5  6  4
  1.153372692303e-02    8  5  6  6
  5.551201310360e-04    8  5  7  3
 -3.391034107081e-03    8  5  7  4
  1.176470617309e-02    8  5  7  6
 -1.153372692303e-02    8  5  7  7
 -1.006426408339e-02    8  5  8  2
  3.631111428603e-02    8  5  8  5
 -1.980046308570e-03    8  6  3  1
  2.291121635737e-03    8  6  3  2
 -2.698558928059e-03    8  6  4  1
  3.749104151980e-04    8  6  4  2
 -1.274084710457e-03    8  6  5  3
 -2.085107316566e-04    8  6  5  4
  1.039503051495e-06    8  6  6  1
  1.738817840285e-03    8  6  6  2
 -5.654438097547e-03    8  6  6  5
 -1.513910434784e-02    8  6  7  1
  1.773916734256e-03    8  6  7  2
 -5.766941622845e-03    8  6  7  5
  5.884346843309e-03    8  6  8  3
 -4.317793090212e-03    8  6  8  4
  3.422347427544e-02    8  6  8  6
  2.698558928059e-03    8  7  3  1
  3.749104151981e-04    8  7  3  2
 -1.980046308570e-03    8  7  4  1
 -2.291121635737e-03    8  7  4  2
 -2.085107316565e-04    8  7  5  3
  1.274084710457e-03    8  7  5  4
  1.513910434784e-02    8  7  6  1
  1.773916734256e-03    8  7  6  2
 -5.766941622845e-03    8  7  6  5
  1.039503051180e-06    8  7  7  1
 -1.738817840285e-03    8  7  7  2
  5.654438097547e-03    8  7  7  5
  4.317793090212e-03    8  7  8  3
  5.884346843309e-03    8  7  8  4
  3.422347427544e-02    8  7  8  7
  8.578353489791e-01    8  8  1  1
  3.765544089389e-01    8  8  2  2
  3.345400542576e-01    8  8  3  3
  3.345400542576e-01    8  8  4  4
 -1.316764506151e-01    8  8  5  2
  7.680489477483e-01    8  8  5  5
  9.216113098645e-02    8  8  6  3
 -6.762787960800e-02    8  8  6  4
  8.191471720067e-01    8  8  6  6
  6.762787960800e-02    8  8  7  3
  9.216113098645e-02    8  8  7  4
  8.191471720067e-01    8  8  7  7
  2.340147302268e-05    8  8  8  1
  9.091862468128e-01    8  8  8  8
  5.331981293803e-03    9  1  2  1
 -1.807845484977e-04    9  1  3  3
 -3.551515350248e-04    9  1  4  3
  1.807845484978e-04    9  1  4  4
 -5.851345726369e-03    9  1  5  1
 -1.130481909339e-04    9  1  6  3
  6.904391527712e-04    9  1  6  4
 -2.342053010902e-03    9  1  6  6
  6.904391527712e-04    9  1  7  3
  1.130481909339e-04    9  1  7  4
  2.295841442941e-03    9  1  7  6
  2.342053010903e-03    9  1  7  7
  6.585767713908e-08    9  1  8  2
 -1.104951075288e-06    9  1  8  5
  8.068705978968e-03    9  1  9  1
  5.688902183198e-02    9  2  1  1
 -1.612352856231e-01    9  2  2  2
 -1.564605674186e-01    9  2  3  3
 -1.564605674186e-01    9  2  4  4
 -4.673265550972e-02    9  2  5  2
  4.254254807226e-02    9  2  5  5
  4.068763772074e-02    9  2  6  3
 -2.985861972697e-02    9  2  6  4
  4.416589685366e-02    9  2  6  6
  2.985861972697e-02    9  2  7  3
  4.068763772074e-02    9  2  7  4
  4.416589685366e-02    9  2  7  7
  1.769290413438e-06    9  2  8  1
  5.796691241561e-02    9  2  8  8
  1.002245447615e-01    9  2  9  2
  1.037908907839e-04    9  3  3  1
 -1.148833893764e-02    9  3  3  2
  2.034057447858e-04    9  3  4  1
 -2.115408894982e-08    9  3  4  2
 -3.254487846238e-03    9  3  5  3
  5.141437772920e-08    9  3  5  4
  3.145537200768e-05    9  3  6  1
  2.198890642119e-03    9  3  6  2
 -7.090664547782e-06    9  3  6  5
 -1.919060662126e-04    9  3  7  1
  1.613612573997e-03    9  3  7  2
 -5.073533107969e-06    9  3  7  5
 -2.092528163136e-04    9  3  8  3
  1.068139381630e-04    9  3  8  4
  1.878442095464e-04    9  3  8  6
  3.079917210172e-05    9  3  8  7
  7.616423918466e-03    9  3  9  3
  2.034057447858e-04    9  4  3  1
  2.115408895146e-08    9  4  3  2
 -1.037908907840e-04    9  4  4  1
 -1.148833893764e-02    9  4  4  2
 -5.141437769524e-08    9  4  5  3
 -3.254487846238e-03    9  4  5  4
 -1.919060662126e-04    9  4  6  1
 -1.613612573997e-03    9  4  6  2
  5.073533107947e-06    9  4  6  5
 -3.145537200771e-05    9  4  7  1
  2.198890642119e-03    9  4  7  2
 -7.090664547788e-06    9  4  7  5
  1.068139381630e-04    9  4  8  3
  2.092528163137e-04    9  4  8  4
  3.079917210177e-05    9  4  8  6
 -1.878442095464e-04    9  4  8  7
  7.616423918466e-03    9  4  9  4
 -1.113868102166e-01    9  5  1  1
 -7.760780681906e-02    9  5  2  2
 -6.507036564035e-02    9  5  3  3
 -6.507036564035e-02    9  5  4  4
  2.391024461215e-02    9  5  5  2
 -1.230951213340e-01    9  5  5  5
 -9.374541112411e-03    9  5  6  3
  6.878077965675e-03    9  5  6  4
 -1.244390507380e-01    9  5  6  6
 -6.878077965675e-03    9  5  7  3
 -9.374541112411e-03    9  5  7  4
 -1.244390507380e-01    9  5  7  7
 -5.336990706335e-06    9  5  8  1
 -1.144659590041e-01    9  5  8  8
  1.365887487394e-02    9  5  9  2
  4.303194624403e-02    9  5  9  5
  5.549210308366e-05    9  6  3  1
  3.301019436791e-03    9  6  3  2
 -3.386278760628e-04    9  6  4  1
 -2.422505698100e-03    9  6  4  2
 -5.480326178234e-04    9  6  5  3
  4.020702374209e-04    9  6  5  4
  2.857902508670e-03    9  6  6  1
  3.487014670838e-03    9  6  6  2
 -4.267273855553e-03    9  6  6  5
 -2.801820712074e-03    9  6  7  1
 -9.743534326716e-09    9  6  7  2
  1.765160992353e-08    9  6  7  5
  3.383969870700e-04    9  6  8  3
  5.548777724277e-05    9  6  8  4
  2.756215907357e-03    9  6  8  6
  2.811875443552e-03    9  6  8  7
 -5.749105144706e-04    9  6  9  3
  4.217216671581e-04    9  6  9  4
  9.596042414673e-03    9  6  9  6
 -3.386278760628e-04    9  7  3  1
  2.422505698100e-03    9  7  3  2
 -5.549210308368e-05    9  7  4  1
  3.301019436791e-03    9  7  4  2
 -4.020702374209e-04    9  7  5  3
 -5.480326178234e-04    9  7  5  4
 -2.801820712074e-03    9  7  6  1
  9.743534261627e-09    9  7  6  2
 -1.765160983511e-08    9  7  6  5
 -2.857902508670e-03    9  7  7  1
  3.487014670838e-03    9  7  7  2
 -4.267273855553e-03    9  7  7  5
  5.548777724275e-05    9  7  8  3
 -3.383969870700e-04    9  7  8  4
  2.811875443552e-03    9  7  8  6
 -2.756215907357e-03    9  7  8  7
 -4.217216671582e-04    9  7  9  3
 -5.749105144706e-04    9  7  9  4
  9.596042414673e-03    9  7  9  7
  9.704304990219e-08    9  8  2  1
  2.963041615464e-04    9  8  3  3
 -1.505828864883e-04    9  8  4  3
 -2.963041615440e-04    9  8  4  4
 -1.287616564800e-06    9  8  5  1
 -7.526706671193e-04    9  8  6  3
 -1.230608951658e-04    9  8  6  4
 -2.523168924679e-03    9  8  6  6
 -1.230608951656e-04    9  8  7  3
  7.526706671197e-04    9  8  7  4
 -2.572658046957e-03    9  8  7  6
  2.523168924684e-03    9  8  7  7
  5.412506367247e-03    9  8  8  2
 -6.667264168937e-03    9  8  8  5
 -3.211598813699e-07    9  8  9  1
  7.968103495403e-03    9  8  9  8
  3.921884832114e-01    9  9  1  1
  3.353548884803e-01    9  9  2  2
  3.099400671530e-01    9  9  3  3
  3.099400671530e-01    9  9  4  4
 -2.417465313025e-02    9  9  5  2
  3.897924808629e-01    9  9  5  5
  1.627513101356e-02    9  9  6  3
 -1.194304041121e-02    9  9  6  4
  3.990529917243e-01    9  9  6  6
  1.194304041121e-02    9  9  7  3
  1.627513101356e-02    9  9  7  4
  3.990529917243e-01    9  9  7  7
  3.854004190700e-06    9  9  8  1
  3.944842646412e-01    9  9  8  8
 -3.261785469652e-04    9  9  9  2
 -3.473472786171e-02    9  9  9  5
  3.265671514534e-01    9  9  9  9
 -6.662109671768e+00    1  1  0  0
 -5.500390710756e+00    2  2  0  0
 -5.318581456134e+00    3  3  0  0
 -5.318581456134e+00    4  4  0  0
  6.215608331518e-01    5  2  0  0
 -6.402824836597e+00    5  5  0  0
 -3.150103540067e-01    6  3  0  0
  2.311426171564e-01    6  4  0  0
 -6.699319320440e+00    6  6  0  0
 -2.311426171564e-01    7  3  0  0
 -3.150103540067e-01    7  4  0  0
 -6.699319320440e+00    7  7  0  0
 -1.160866753796e-04    8  1  0  0
 -6.724660621103e+00    8  8  0  0
  4.127926823266e-01    9  2  0  0
  8.962810005541e-01    9  5  0  0
 -4.046114598830e+00    9  9  0  0
   -100.002124046622   0  0  0  0
