#INFO: **** input file is /projects/bamu3429/BENCHMARK/fresh_atoms/MRPT/vqz/monoxides/FeO/mrpt.py ****
import json
from pyscf import gto,scf,mcscf, fci, lo, ci, cc
from pyscf.scf import ROHF, UHF,ROKS
import numpy as np
import pandas as pd

# THIS IS WERE IT STARTS ====================================

df=json.load(open("../../../trail.json"))

spins={'ScO':1, 'TiO':2, 'VO':3, 'CrO':4, 'MnO':5, 'FeO':4, 'CuO':1}

nd={'Sc':(1,0), 'Ti':(2,0), 'V':(3,0), 'Cr':(5,0), 'Mn':(5,0), 'Fe':(5,1), 'Cu':(5,4)}

cas={'Sc':3, 'Ti':4, 'V':5, 'Cr':6, 'Mn':7, 'Fe':8, 'Cu':11}

re={'ScO':1.668, 'TiO':1.623, 'VO':1.591, 'CrO':1.621, 'MnO':1.648, 'FeO':1.616, 'CuO':1.725}

datacsv={}
for nm in ['basis','charge','method','molecule','pseudopotential',
           'totalenergy','totalenergy-stocherr','totalenergy-syserr']:
  datacsv[nm]=[]

basis='vqz'
element='Fe'

mol=gto.Mole()
mol.ecp={}
mol.basis={}
for el in [element,'O']:
  mol.ecp[el]=gto.basis.parse_ecp(df[el]['ecp'])
  mol.basis[el]=gto.basis.parse(df[el][basis])
mol.charge=0
mol.spin=spins[element+'O']
mol.build(atom="%s 0. 0. 0.; O 0. 0. %g"%(element,re[element+'O']),verbose=4)

m=ROHF(mol)
m.level_shift=1000.0
dm=m.from_chk("../../../../HF/monoxides/"+element+basis+"0.chk")
hf=m.kernel(dm)
m.analyze()

from pyscf.shciscf import shci
mc = shci.SHCISCF(m, 9, 4+cas[element])
#mc.fcisolver.conv_tol = 1e-14
mc.fcisolver.mpiprefix="mpirun -np 28"
mc.fcisolver.num_thrds=12
mc.verbose = 4
cas=mc.kernel()[0]
 
from pyscf.icmpspt import icmpspt
pt=icmpspt.icmpspt(mc,rdmM=500, PTM=1000,\
                          pttype="MRLCC",\
                          third_order=True,\
                          fully_ic=True,\
                          do_dm4=True)

datacsv['basis'].append(basis)
datacsv['charge'].append(0)
datacsv['method'].append('MRPT')
datacsv['molecule'].append(element)
datacsv['pseudopotential'].append('trail')
datacsv['totalenergy'].append(cas+pt)
datacsv['totalenergy-stocherr'].append(0.0)
datacsv['totalenergy-syserr'].append(0.0)
pd.DataFrame(datacsv).to_csv(element+".csv",index=False)

#INFO: ******************** input file end ********************


System: ('Linux', 'bnode0306.rc.int.colorado.edu', '3.10.0-514.41.1.el7.x86_64', '#1 SMP Wed Jan 17 10:26:16 EST 2018', 'x86_64', 'x86_64')  Threads 28
Python 2.7.11 (default, Mar 22 2016, 01:42:54) 
[GCC Intel(R) C++ gcc 4.8 mode]
numpy 1.11.1  scipy 0.17.1
Date: Wed Mar 28 16:08:27 2018
PySCF version 1.4
PySCF path  /projects/bamu3429/softwares/pyscf_uptodate/pyscf
GIT ORIG_HEAD e2292e6edec2b0e0024c21b81de03db1d7bd4121
GIT HEAD      ref: refs/heads/master
GIT master branch  f3591ef22170896a4cdc2aadaa6f5da388ffcadb

[INPUT] VERBOSE 4
[INPUT] num atoms = 2
[INPUT] num electrons = 22
[INPUT] charge = 0
[INPUT] spin (= nelec alpha-beta = 2S) = 4
[INPUT] symmetry False subgroup None
[INPUT]  1 Fe     0.000000000000   0.000000000000   0.000000000000 AA    0.000000000000   0.000000000000   0.000000000000 Bohr
[INPUT]  2 O      0.000000000000   0.000000000000   1.616000000000 AA    0.000000000000   0.000000000000   3.053797417297 Bohr
[INPUT] ---------------- BASIS SET ---------------- 
[INPUT] l, kappa, [nprim/nctr], expnt,             c_1 c_2 ...
[INPUT] Fe
[INPUT] 0    0    [12   /1   ]  41.79315189       0.013363
                                21.4479766        -0.225831
                                13.50597996       1.092302
                                9.47978339        -1.379238
                                4.48116767        0.183004
                                2.00533715        0.377557
                                1.21557711        0.591529
                                0.52042955        0.236703
                                0.24120153        -0.029854
                                0.11142434        0.02048
                                0.05213724        -0.006828
                                0.02419858        0.002604
[INPUT] 0    0    [12   /1   ]  41.79315189       -0.002034
                                21.4479766        0.04181
                                13.50597996       -0.22265
                                9.47978339        0.296462
                                4.48116767        -0.039261
                                2.00533715        -0.090727
                                1.21557711        -0.230375
                                0.52042955        -0.197211
                                0.24120153        0.111234
                                0.11142434        0.439139
                                0.05213724        0.516418
                                0.02419858        0.126845
[INPUT] 0    0    [12   /1   ]  41.79315189       -0.004837
                                21.4479766        0.142209
                                13.50597996       -0.903454
                                9.47978339        1.370339
                                4.48116767        -0.409377
                                2.00533715        -1.287567
                                1.21557711        0.205595
                                0.52042955        0.603911
                                0.24120153        0.738131
                                0.11142434        0.144644
                                0.05213724        -0.563073
                                0.02419858        -0.31909
[INPUT] 0    0    [12   /1   ]  41.79315189       -0.003884
                                21.4479766        0.166254
                                13.50597996       -1.213665
                                9.47978339        2.033455
                                4.48116767        -1.02974
                                2.00533715        -2.334822
                                1.21557711        2.086971
                                0.52042955        1.379229
                                0.24120153        -1.184835
                                0.11142434        -0.997257
                                0.05213724        0.546401
                                0.02419858        0.59844
[INPUT] 0    0    [12   /1   ]  41.79315189       -0.002831
                                21.4479766        -0.1658
                                13.50597996       1.74845
                                9.47978339        -3.545105
                                4.48116767        3.817957
                                2.00533715        0.21218
                                1.21557711        -4.041249
                                0.52042955        2.619566
                                0.24120153        1.026746
                                0.11142434        -2.118211
                                0.05213724        0.042195
                                0.02419858        0.853187
[INPUT] 0    0    [1    /1   ]  0.02419858           1
[INPUT] 0    0    [1    /1   ]  0.01123134           1
[INPUT] 1    0    [12   /1   ]  66.19105244       0.00032
                                34.58074578       -0.003142
                                17.77781378       0.029707
                                9.38371315        -0.152873
                                5.85185491        0.094627
                                3.39352009        0.227547
                                1.80084269        0.448024
                                0.88349057        0.318306
                                0.45376195        0.097682
                                0.18864625        0.012314
                                0.07756623        -0.001004
                                0.03189313        0.000474
[INPUT] 1    0    [12   /1   ]  66.19105244       -1.8e-05
                                34.58074578       0.000416
                                17.77781378       -0.005911
                                9.38371315        0.03555
                                5.85185491        -0.025962
                                3.39352009        -0.059781
                                1.80084269        -0.122371
                                0.88349057        -0.102075
                                0.45376195        0.039881
                                0.18864625        0.346137
                                0.07756623        0.528115
                                0.03189313        0.237416
[INPUT] 1    0    [12   /1   ]  66.19105244       -0.000757
                                34.58074578       0.002198
                                17.77781378       0.018471
                                9.38371315        -0.223198
                                5.85185491        0.199379
                                3.39352009        0.827171
                                1.80084269        0.013075
                                0.88349057        -0.896886
                                0.45376195        -0.312811
                                0.18864625        0.644499
                                0.07756623        0.378067
                                0.03189313        0.003975
[INPUT] 1    0    [12   /1   ]  66.19105244       -0.001362
                                34.58074578       0.004899
                                17.77781378       0.030086
                                9.38371315        -0.547347
                                5.85185491        1.144321
                                3.39352009        0.837657
                                1.80084269        -1.666445
                                0.88349057        -0.541803
                                0.45376195        1.568452
                                0.18864625        -0.154076
                                0.07756623        -0.636056
                                0.03189313        0.003625
[INPUT] 1    0    [12   /1   ]  66.19105244       -0.007466
                                34.58074578       0.041225
                                17.77781378       -0.113823
                                9.38371315        -0.593972
                                5.85185491        3.090393
                                3.39352009        -2.298941
                                1.80084269        -1.325372
                                0.88349057        2.843762
                                0.45376195        -1.264441
                                0.18864625        -0.765375
                                0.07756623        0.899235
                                0.03189313        -0.013792
[INPUT] 1    0    [1    /1   ]  0.03189313           1
[INPUT] 1    0    [1    /1   ]  0.01311358           1
[INPUT] 2    0    [10   /1   ]  58.21685909       0.000311
                                24.96806153       -0.010386
                                12.44413704       0.126915
                                5.48395408        0.166806
                                2.79137309        0.262721
                                1.34407118        0.316542
                                0.61230651        0.280074
                                0.27095461        0.158069
                                0.12811374        0.049028
                                0.05904405        0.008369
[INPUT] 2    0    [10   /1   ]  58.21685909       0.000385
                                24.96806153       0.007345
                                12.44413704       -0.129376
                                5.48395408        -0.235095
                                2.79137309        -0.387916
                                1.34407118        -0.056421
                                0.61230651        0.34416
                                0.27095461        0.401431
                                0.12811374        0.201425
                                0.05904405        0.045061
[INPUT] 2    0    [10   /1   ]  58.21685909       -0.002018
                                24.96806153       0.001015
                                12.44413704       0.127448
                                5.48395408        0.457991
                                2.79137309        0.230218
                                1.34407118        -0.694956
                                0.61230651        -0.373723
                                0.27095461        0.35233
                                0.12811374        0.420337
                                0.05904405        0.109669
[INPUT] 2    0    [10   /1   ]  58.21685909       -5.7e-05
                                24.96806153       -0.016008
                                12.44413704       0.319947
                                5.48395408        0.834009
                                2.79137309        -1.01955
                                1.34407118        -0.489125
                                0.61230651        0.956701
                                0.27095461        0.060729
                                0.12811374        -0.501922
                                0.05904405        -0.152504
[INPUT] 2    0    [1    /1   ]  0.05904405           1
[INPUT] 2    0    [1    /1   ]  0.02721175           1
[INPUT] 3    0    [1    /1   ]  4.808419             1
[INPUT] 3    0    [1    /1   ]  1.639843             1
[INPUT] 3    0    [1    /1   ]  0.559243             1
[INPUT] 3    0    [1    /1   ]  0.19072114           1
[INPUT] 4    0    [1    /1   ]  4.604195             1
[INPUT] 4    0    [1    /1   ]  1.569312             1
[INPUT] 4    0    [1    /1   ]  0.53489048           1
[INPUT] 5    0    [1    /1   ]  3.877747             1
[INPUT] 5    0    [1    /1   ]  1.32170656           1
[INPUT] O
[INPUT] 0    0    [10   /1   ]  57.663349         -0.002794
                                35.726816         0.023976
                                22.453757         -0.115974
                                14.732301         0.288033
                                9.739917          -0.274786
                                5.042008          -0.083789
                                2.157818          0.063778
                                1.002916          0.410182
                                0.421839          0.504044
                                0.173041          0.172152
[INPUT] 0    0    [1    /1   ]  1.70747              1
[INPUT] 0    0    [1    /1   ]  0.617491             1
[INPUT] 0    0    [1    /1   ]  0.223309             1
[INPUT] 0    0    [1    /1   ]  0.084592             1
[INPUT] 1    0    [10   /1   ]  52.47406          -0.000522
                                32.138432         0.004857
                                19.458579         -0.027749
                                11.839344         0.074258
                                7.91003           0.014369
                                3.670858          0.153479
                                1.53966           0.283685
                                0.647119          0.358201
                                0.267853          0.29559
                                0.107198          0.104889
[INPUT] 1    0    [1    /1   ]  1.345435             1
[INPUT] 1    0    [1    /1   ]  0.458358             1
[INPUT] 1    0    [1    /1   ]  0.156151             1
[INPUT] 1    0    [1    /1   ]  0.045837             1
[INPUT] 2    0    [1    /1   ]  3.661538             1
[INPUT] 2    0    [1    /1   ]  1.279275             1
[INPUT] 2    0    [1    /1   ]  0.446952             1
[INPUT] 2    0    [1    /1   ]  0.148191             1
[INPUT] 3    0    [1    /1   ]  2.598839             1
[INPUT] 3    0    [1    /1   ]  0.849032             1
[INPUT] 3    0    [1    /1   ]  0.310222             1
[INPUT] 4    0    [1    /1   ]  1.838653             1
[INPUT] 4    0    [1    /1   ]  0.706784             1
nuclear repulsion = 31.4362699556436
number of shells = 48
number of NR pGTOs = 650
number of NR cGTOs = 214
basis = {'Fe': [[0, [41.79315189, 0.013363], [21.4479766, -0.225831], [13.50597996, 1.092302], [9.47978339, -1.379238], [4.48116767, 0.183004], [2.00533715, 0.377557], [1.21557711, 0.591529], [0.52042955, 0.236703], [0.24120153, -0.029854], [0.11142434, 0.02048], [0.05213724, -0.006828], [0.02419858, 0.002604]], [0, [41.79315189, -0.002034], [21.4479766, 0.04181], [13.50597996, -0.22265], [9.47978339, 0.296462], [4.48116767, -0.039261], [2.00533715, -0.090727], [1.21557711, -0.230375], [0.52042955, -0.197211], [0.24120153, 0.111234], [0.11142434, 0.439139], [0.05213724, 0.516418], [0.02419858, 0.126845]], [0, [41.79315189, -0.004837], [21.4479766, 0.142209], [13.50597996, -0.903454], [9.47978339, 1.370339], [4.48116767, -0.409377], [2.00533715, -1.287567], [1.21557711, 0.205595], [0.52042955, 0.603911], [0.24120153, 0.738131], [0.11142434, 0.144644], [0.05213724, -0.563073], [0.02419858, -0.31909]], [0, [41.79315189, -0.003884], [21.4479766, 0.166254], [13.50597996, -1.213665], [9.47978339, 2.033455], [4.48116767, -1.02974], [2.00533715, -2.334822], [1.21557711, 2.086971], [0.52042955, 1.379229], [0.24120153, -1.184835], [0.11142434, -0.997257], [0.05213724, 0.546401], [0.02419858, 0.59844]], [0, [41.79315189, -0.002831], [21.4479766, -0.1658], [13.50597996, 1.74845], [9.47978339, -3.545105], [4.48116767, 3.817957], [2.00533715, 0.21218], [1.21557711, -4.041249], [0.52042955, 2.619566], [0.24120153, 1.026746], [0.11142434, -2.118211], [0.05213724, 0.042195], [0.02419858, 0.853187]], [0, [0.02419858, 1.0]], [0, [0.01123134, 1.0]], [1, [66.19105244, 0.00032], [34.58074578, -0.003142], [17.77781378, 0.029707], [9.38371315, -0.152873], [5.85185491, 0.094627], [3.39352009, 0.227547], [1.80084269, 0.448024], [0.88349057, 0.318306], [0.45376195, 0.097682], [0.18864625, 0.012314], [0.07756623, -0.001004], [0.03189313, 0.000474]], [1, [66.19105244, -1.8e-05], [34.58074578, 0.000416], [17.77781378, -0.005911], [9.38371315, 0.03555], [5.85185491, -0.025962], [3.39352009, -0.059781], [1.80084269, -0.122371], [0.88349057, -0.102075], [0.45376195, 0.039881], [0.18864625, 0.346137], [0.07756623, 0.528115], [0.03189313, 0.237416]], [1, [66.19105244, -0.000757], [34.58074578, 0.002198], [17.77781378, 0.018471], [9.38371315, -0.223198], [5.85185491, 0.199379], [3.39352009, 0.827171], [1.80084269, 0.013075], [0.88349057, -0.896886], [0.45376195, -0.312811], [0.18864625, 0.644499], [0.07756623, 0.378067], [0.03189313, 0.003975]], [1, [66.19105244, -0.001362], [34.58074578, 0.004899], [17.77781378, 0.030086], [9.38371315, -0.547347], [5.85185491, 1.144321], [3.39352009, 0.837657], [1.80084269, -1.666445], [0.88349057, -0.541803], [0.45376195, 1.568452], [0.18864625, -0.154076], [0.07756623, -0.636056], [0.03189313, 0.003625]], [1, [66.19105244, -0.007466], [34.58074578, 0.041225], [17.77781378, -0.113823], [9.38371315, -0.593972], [5.85185491, 3.090393], [3.39352009, -2.298941], [1.80084269, -1.325372], [0.88349057, 2.843762], [0.45376195, -1.264441], [0.18864625, -0.765375], [0.07756623, 0.899235], [0.03189313, -0.013792]], [1, [0.03189313, 1.0]], [1, [0.01311358, 1.0]], [2, [58.21685909, 0.000311], [24.96806153, -0.010386], [12.44413704, 0.126915], [5.48395408, 0.166806], [2.79137309, 0.262721], [1.34407118, 0.316542], [0.61230651, 0.280074], [0.27095461, 0.158069], [0.12811374, 0.049028], [0.05904405, 0.008369]], [2, [58.21685909, 0.000385], [24.96806153, 0.007345], [12.44413704, -0.129376], [5.48395408, -0.235095], [2.79137309, -0.387916], [1.34407118, -0.056421], [0.61230651, 0.34416], [0.27095461, 0.401431], [0.12811374, 0.201425], [0.05904405, 0.045061]], [2, [58.21685909, -0.002018], [24.96806153, 0.001015], [12.44413704, 0.127448], [5.48395408, 0.457991], [2.79137309, 0.230218], [1.34407118, -0.694956], [0.61230651, -0.373723], [0.27095461, 0.35233], [0.12811374, 0.420337], [0.05904405, 0.109669]], [2, [58.21685909, -5.7e-05], [24.96806153, -0.016008], [12.44413704, 0.319947], [5.48395408, 0.834009], [2.79137309, -1.01955], [1.34407118, -0.489125], [0.61230651, 0.956701], [0.27095461, 0.060729], [0.12811374, -0.501922], [0.05904405, -0.152504]], [2, [0.05904405, 1.0]], [2, [0.02721175, 1.0]], [3, [4.808419, 1.0]], [3, [1.639843, 1.0]], [3, [0.559243, 1.0]], [3, [0.19072114, 1.0]], [4, [4.604195, 1.0]], [4, [1.569312, 1.0]], [4, [0.53489048, 1.0]], [5, [3.877747, 1.0]], [5, [1.32170656, 1.0]]], 'O': [[0, [57.663349, -0.002794], [35.726816, 0.023976], [22.453757, -0.115974], [14.732301, 0.288033], [9.739917, -0.274786], [5.042008, -0.083789], [2.157818, 0.063778], [1.002916, 0.410182], [0.421839, 0.504044], [0.173041, 0.172152]], [0, [1.70747, 1.0]], [0, [0.617491, 1.0]], [0, [0.223309, 1.0]], [0, [0.084592, 1.0]], [1, [52.47406, -0.000522], [32.138432, 0.004857], [19.458579, -0.027749], [11.839344, 0.074258], [7.91003, 0.014369], [3.670858, 0.153479], [1.53966, 0.283685], [0.647119, 0.358201], [0.267853, 0.29559], [0.107198, 0.104889]], [1, [1.345435, 1.0]], [1, [0.458358, 1.0]], [1, [0.156151, 1.0]], [1, [0.045837, 1.0]], [2, [3.661538, 1.0]], [2, [1.279275, 1.0]], [2, [0.446952, 1.0]], [2, [0.148191, 1.0]], [3, [2.598839, 1.0]], [3, [0.849032, 1.0]], [3, [0.310222, 1.0]], [4, [1.838653, 1.0]], [4, [0.706784, 1.0]]]}
ecp = {'Fe': [10, [[-1, [[], [[16.90683491, 16.0]], [[18.40258134, 26847.81569895], [6.30300831, -133.54888707], [18.42848726, -26765.4049232], [18.43432023, 1.00742417]], [[7.01300654, 270.50935856]]]], [0, [[], [], [[9.62463353, 20308.8999348], [9.1270955, -17595.21707731], [7.5416384, 1884.69012383], [12.70900949, -4483.50209856], [8.14863339, -1094.38597968], [16.27611739, 1032.95376659]], []]], [1, [[], [], [[11.36514719, -905.00711112], [14.56762424, 34640.9358259], [15.05861359, -42299.94223895], [17.41337089, 10633.68808757], [18.3746752, -5844.19723669], [17.04734437, 3803.80414779]], []]], [2, [[], [], [[10.13935738, -11031.18647055], [13.45796076, 16711.37502047], [10.97387824, 37989.95033676], [11.92919033, -41782.92514683], [17.7123012, 3812.58339812], [17.32108913, -5718.00854971]], []]]]], 'O': [2, [[-1, [[], [[10.27717748, 6.0]], [[15.99566749, 1232.50197768], [10.46901775, -696.47008301], [14.6384801, -2654.22657081], [12.57591181, 2101.67732548]], [[7.77739102, 61.66306486]]]], [0, [[], [], [[12.39426073, -656683.37638839], [12.38126171, 657858.57667068], [8.57671033, 511.50098405], [9.89256508, -2579.54665641], [28.05641604, -57.68129584], [17.24753607, 970.30940152]], []]], [1, [[], [], [[14.78918914, -363027.24258186], [14.82014018, 361852.52314043], [22.89622221, -1300.20069256], [8.51331893, -181.96869573], [11.48609758, 2194.87589959], [27.22017524, 451.19906206]], []]]]]}
CPU time:         3.70


******** <class 'pyscf.scf.rohf.ROHF'> flags ********
method = ROHF
initial guess = minao
damping factor = 0
level shift factor = 1000.0
DIIS = <class 'pyscf.scf.diis.CDIIS'>
DIIS start cycle = 1
DIIS space = 8
SCF tol = 1e-09
SCF gradient tol = None
max. SCF cycles = 50
direct_scf = True
direct_scf_tol = 1e-13
chkfile to save SCF result = /projects/bamu3429/BENCHMARK/fresh_atoms/MRPT/vqz/monoxides/FeO/tmpakfmL7
max_memory 4000 MB (current use 138 MB)
num. doubly occ = 9  num. singly occ = 4
Set gradient conv threshold to 3.16228e-05
init E= -138.672275002286
  HOMO = 499.858809990661  LUMO = 999.964678836806
cycle= 1 E= -138.672275002286  delta_E=    0  |g|= 4.88e-06  |ddm|= 2.99e-08
  HOMO = -0.141190008411434  LUMO = -0.0353211632215508
Extra cycle  E= -138.672275002293  delta_E= -7.5e-12  |g|= 4.17e-06  |ddm|= 1.84e-05
converged SCF energy = -138.672275002293
**** MO energy ****
                Roothaan           | alpha              | beta
MO #1   energy= -4.40481535290203  | -4.57803968300014  | -4.23159099644788  occ= 2
MO #2   energy= -2.79332632864803  | -3.04230017750587  | -2.54435252116043  occ= 2
MO #3   energy= -2.78487242283258  | -2.97277401452396  | -2.59697084723321  occ= 2
MO #4   energy= -2.78487242283258  | -2.97277401452396  | -2.59697084723321  occ= 2
MO #5   energy= -1.11719892697627  | -1.13106834520326  | -1.103329530535    occ= 2
MO #6   energy= -0.539067260819913 | -0.599356619664803 | -0.478777901975026 occ= 2
MO #7   energy= -0.41367695039131  | -0.443780196303262 | -0.383574246192363 occ= 2
MO #8   energy= -0.388054084378218 | -0.414710872033188 | -0.361396625087879 occ= 2
MO #9   energy= -0.388054084378212 | -0.414710872033185 | -0.361396625087877 occ= 2
MO #10  energy= -0.149239544192656 | -0.567048426245631 | 0.268569634592128  occ= 1
MO #11  energy= -0.143188325052908 | -0.621457959924119 | 0.335080716642915  occ= 1
MO #12  energy= -0.143188325052903 | -0.62145795992412  | 0.335080716642914  occ= 1
MO #13  energy= -0.141190008411434 | -0.647904143354822 | 0.365524338939362  occ= 1
MO #14  energy= -0.0353211632215508 | -0.0456476331592647 | -0.0249944361740562 occ= 0
MO #15  energy= 0.0180470558111437 | 0.0146823574687055 | 0.0214117905347919 occ= 0
MO #16  energy= 0.0180827846685456 | 0.0168496291939329 | 0.019315931628219  occ= 0
MO #17  energy= 0.0180827846685499 | 0.0168496291939328 | 0.0193159316282192 occ= 0
MO #18  energy= 0.0365651284601887 | 0.0360115978721045 | 0.0371186613888775 occ= 0
MO #19  energy= 0.0693288576832438 | 0.0663738677272332 | 0.0722838100422965 occ= 0
MO #20  energy= 0.0693288576832451 | 0.0663738677272367 | 0.0722838100422973 occ= 0
MO #21  energy= 0.0765067151074402 | 0.0754367684594742 | 0.0775766980922964 occ= 0
MO #22  energy= 0.0783711601837108 | 0.0781865726124512 | 0.0785557477549755 occ= 0
MO #23  energy= 0.0784469931861988 | 0.0780605859388371 | 0.0788333687674501 occ= 0
MO #24  energy= 0.0903013977255929 | 0.0871403148669222 | 0.0934624764904062 occ= 0
MO #25  energy= 0.0903013977256024 | 0.0871403148669334 | 0.0934624764904159 occ= 0
MO #26  energy= 0.127504455073208  | 0.120552283452471  | 0.134456630849536  occ= 0
MO #27  energy= 0.13780272488841   | 0.134146445626726  | 0.141459018097659  occ= 0
MO #28  energy= 0.208413008537988  | 0.204974235970383  | 0.211851774703408  occ= 0
MO #29  energy= 0.208413008538029  | 0.204974235970408  | 0.211851774703464  occ= 0
MO #30  energy= 0.217288848483224  | 0.214795415600027  | 0.219782271027514  occ= 0
MO #31  energy= 0.236361554817189  | 0.23376171743348   | 0.238961392200895  occ= 0
MO #32  energy= 0.238327010573971  | 0.232319348422861  | 0.244334606517051  occ= 0
MO #33  energy= 0.248154329571604  | 0.241404666048426  | 0.254903903622318  occ= 0
MO #34  energy= 0.251972306949113  | 0.245139408016883  | 0.258805202491792  occ= 0
MO #35  energy= 0.251972306949182  | 0.245139408016975  | 0.25880520249184   occ= 0
MO #36  energy= 0.285084860178775  | 0.275258199517875  | 0.294911516914701  occ= 0
MO #37  energy= 0.285084860178781  | 0.275258199517864  | 0.294911516914724  occ= 0
MO #38  energy= 0.411689341185592  | 0.404729173950502  | 0.418649481648494  occ= 0
MO #39  energy= 0.562702854187387  | 0.546568104008204  | 0.578837564988439  occ= 0
MO #40  energy= 0.578036073581806  | 0.576230272076446  | 0.579841875087161  occ= 0
MO #41  energy= 0.578329166945867  | 0.575638332946456  | 0.581019997846188  occ= 0
MO #42  energy= 0.641183667434359  | 0.627579989353714  | 0.654787375740169  occ= 0
MO #43  energy= 0.64118366743453   | 0.627579989353868  | 0.654787375740358  occ= 0
MO #44  energy= 0.657179251659277  | 0.646153912126816  | 0.668204621644708  occ= 0
MO #45  energy= 0.703051801183681  | 0.69676415791416   | 0.709339444477886  occ= 0
MO #46  energy= 0.703051801183682  | 0.696764157914158  | 0.709339444477885  occ= 0
MO #47  energy= 0.706334616074944  | 0.689268948829014  | 0.72340028832459   occ= 0
MO #48  energy= 0.757495584933105  | 0.751378515128015  | 0.76361266818689   occ= 0
MO #49  energy= 0.75749558493311   | 0.751378515128025  | 0.763612668186889  occ= 0
MO #50  energy= 0.758927107004757  | 0.750122694760781  | 0.767731519248739  occ= 0
MO #51  energy= 0.764404658816115  | 0.74661774556827   | 0.782191555786597  occ= 0
MO #52  energy= 0.771735747997762  | 0.763145708298875  | 0.780325822934222  occ= 0
MO #53  energy= 0.872875735951455  | 0.868469138548992  | 0.877282333131321  occ= 0
MO #54  energy= 0.872875735951465  | 0.868469138548998  | 0.87728233313134   occ= 0
MO #55  energy= 0.948171299066841  | 0.937425127451008  | 0.958917470682671  occ= 0
MO #56  energy= 0.961006358556019  | 0.926533451380701  | 0.995479220627122  occ= 0
MO #57  energy= 1.18237588846902   | 1.1558408867857    | 1.20891088667455   occ= 0
MO #58  energy= 1.18237588846914   | 1.15584088678582   | 1.20891088667468   occ= 0
MO #59  energy= 1.2520160371054    | 1.24439255325729   | 1.25963952122815   occ= 0
MO #60  energy= 1.42693851426468   | 1.39112775730049   | 1.46274925756525   occ= 0
MO #61  energy= 1.42693851426483   | 1.39112775730064   | 1.46274925756542   occ= 0
MO #62  energy= 1.43620703578677   | 1.43488074405822   | 1.43753332747858   occ= 0
MO #63  energy= 1.43620703578677   | 1.43488074405822   | 1.43753332747858   occ= 0
MO #64  energy= 1.47125425823998   | 1.46330224426732   | 1.47920627639032   occ= 0
MO #65  energy= 1.64347416998278   | 1.6268076755438    | 1.6601406670478    occ= 0
MO #66  energy= 1.65209457110172   | 1.64762875386698   | 1.65656038833646   occ= 0
MO #67  energy= 1.65229333451117   | 1.64607104646552   | 1.65851562165759   occ= 0
MO #68  energy= 1.7008802311859    | 1.69855325634273   | 1.70320720602907   occ= 0
MO #69  energy= 1.70093315019849   | 1.69770480895697   | 1.70416149010713   occ= 0
MO #70  energy= 1.73449225911013   | 1.72807767177593   | 1.7409068477018    occ= 0
MO #71  energy= 1.73449225911014   | 1.72807767177595   | 1.74090684770181   occ= 0
MO #72  energy= 1.89208269227081   | 1.86776553745998   | 1.91639986016625   occ= 0
MO #73  energy= 2.08841568006747   | 2.05391265392307   | 2.12291871546248   occ= 0
MO #74  energy= 2.08841568006759   | 2.05391265392317   | 2.1229187154626    occ= 0
MO #75  energy= 2.10957488928932   | 2.07443354675365   | 2.14471625282339   occ= 0
MO #76  energy= 2.15164523451444   | 2.11689831327486   | 2.18639215576012   occ= 0
MO #77  energy= 2.15164523451445   | 2.11689831327486   | 2.18639215576012   occ= 0
MO #78  energy= 2.22862730027404   | 2.19746789948375   | 2.25978670106433   occ= 0
MO #79  energy= 2.23254459256192   | 2.18812464420679   | 2.27696454077698   occ= 0
MO #80  energy= 2.32739081713971   | 2.29455618852554   | 2.36022544402286   occ= 0
MO #81  energy= 2.48756894935562   | 2.47285651573726   | 2.50228138383739   occ= 0
MO #82  energy= 2.48756894935566   | 2.4728565157373    | 2.50228138383745   occ= 0
MO #83  energy= 2.49521889966452   | 2.48276576067949   | 2.50767203912562   occ= 0
MO #84  energy= 2.49522332394819   | 2.4827443241184    | 2.50770232377797   occ= 0
MO #85  energy= 2.58066171796305   | 2.56894776197873   | 2.59237567369926   occ= 0
MO #86  energy= 2.58066171796306   | 2.56894776197874   | 2.59237567369927   occ= 0
MO #87  energy= 2.62854637930687   | 2.61796055615413   | 2.63913220024048   occ= 0
MO #88  energy= 2.62854637930688   | 2.61796055615414   | 2.63913220024049   occ= 0
MO #89  energy= 2.74997031831833   | 2.7236149485754    | 2.77632568482735   occ= 0
MO #90  energy= 2.92439459043982   | 2.90832079444316   | 2.94046838301562   occ= 0
MO #91  energy= 2.9251989157592    | 2.91433357006263   | 2.93606426145577   occ= 0
MO #92  energy= 3.0522740200086    | 3.03571155934746   | 3.06883648032593   occ= 0
MO #93  energy= 3.16680272006949   | 3.14886240756243   | 3.18474303283987   occ= 0
MO #94  energy= 3.1668027200696    | 3.14886240756253   | 3.18474303283999   occ= 0
MO #95  energy= 3.3309498763445    | 3.31233362218485   | 3.34956612942124   occ= 0
MO #96  energy= 3.56308894467693   | 3.53614388324468   | 3.59003400610919   occ= 0
MO #97  energy= 3.58490831876431   | 3.50450929193695   | 3.66530730595703   occ= 0
MO #98  energy= 3.76522476969946   | 3.72608378933734   | 3.8043657242204    occ= 0
MO #99  energy= 3.76522476969963   | 3.72608378933752   | 3.80436572422059   occ= 0
MO #100 energy= 3.77265555545006   | 3.77148996917597   | 3.77382114172645   occ= 0
MO #101 energy= 3.77265556045308   | 3.77148967924628   | 3.77382144165987   occ= 0
MO #102 energy= 3.94834309593942   | 3.94568451828089   | 3.9510016735883    occ= 0
MO #103 energy= 3.94834309593942   | 3.94568451828088   | 3.9510016735883    occ= 0
MO #104 energy= 4.09256482416165   | 4.06722447485053   | 4.11790516950239   occ= 0
MO #105 energy= 4.16926079558394   | 4.16718673690009   | 4.1713348542669    occ= 0
MO #106 energy= 4.16926079558394   | 4.16718673690009   | 4.17133485426689   occ= 0
MO #107 energy= 4.30064247060835   | 4.29709608740961   | 4.3041888538071    occ= 0
MO #108 energy= 4.30088289241525   | 4.29503594076      | 4.30672984268351   occ= 0
MO #109 energy= 4.34204081483718   | 4.33823215820012   | 4.34584947147424   occ= 0
MO #110 energy= 4.34214344658494   | 4.33673376117103   | 4.3475531312142    occ= 0
MO #111 energy= 4.42221383757017   | 4.41728825625866   | 4.42713941896348   occ= 0
MO #112 energy= 4.46983628085925   | 4.45578998301378   | 4.4838825741877    occ= 0
MO #113 energy= 4.46983628085925   | 4.4557899830138    | 4.48388257418771   occ= 0
MO #114 energy= 4.62787962087105   | 4.61576357460786   | 4.63999566667005   occ= 0
MO #115 energy= 4.62787962087106   | 4.61576357460788   | 4.63999566667006   occ= 0
MO #116 energy= 4.67847830363815   | 4.6689853562261    | 4.68797124924719   occ= 0
MO #117 energy= 4.68097021875736   | 4.67291074156762   | 4.6890296959471    occ= 0
MO #118 energy= 4.68099547103479   | 4.66968325225065   | 4.69230768912475   occ= 0
MO #119 energy= 5.30677317783057   | 5.26284816963169   | 5.35069818322404   occ= 0
MO #120 energy= 5.30677317783058   | 5.26284816963168   | 5.35069818322403   occ= 0
MO #121 energy= 5.572928664774     | 5.51279991744895   | 5.6330574142846    occ= 0
MO #122 energy= 5.75962888589921   | 5.69021449165946   | 5.82904328015169   occ= 0
MO #123 energy= 5.75962888589922   | 5.69021449165947   | 5.82904328015169   occ= 0
MO #124 energy= 5.80378944710271   | 5.76142803947311   | 5.84615085439419   occ= 0
MO #125 energy= 5.88595711357335   | 5.8130135162266    | 5.9589007109201    occ= 0
MO #126 energy= 5.89247907113759   | 5.78919608374275   | 5.99576205869073   occ= 0
MO #127 energy= 5.90565697256102   | 5.82552986651035   | 5.98578407913571   occ= 0
MO #128 energy= 5.90565697256102   | 5.82552986651036   | 5.98578407913572   occ= 0
MO #129 energy= 6.60801610838919   | 6.55715657019418   | 6.65887564251607   occ= 0
MO #130 energy= 6.64615406716899   | 6.60877519956102   | 6.68353293515925   occ= 0
MO #131 energy= 6.64615406716914   | 6.60877519956117   | 6.68353293515941   occ= 0
MO #132 energy= 7.47865117199061   | 7.45714341156061   | 7.50015893241213   occ= 0
MO #133 energy= 7.47877303831291   | 7.45742475145083   | 7.50012132517503   occ= 0
MO #134 energy= 7.47900415516692   | 7.45974074350577   | 7.49826756682936   occ= 0
MO #135 energy= 7.47900415516693   | 7.45974074350578   | 7.49826756682938   occ= 0
MO #136 energy= 7.55667228807147   | 7.51709170812562   | 7.59625286705389   occ= 0
MO #137 energy= 7.57134531073757   | 7.54685766550986   | 7.59583295592538   occ= 0
MO #138 energy= 7.57134531073757   | 7.54685766550987   | 7.59583295592539   occ= 0
MO #139 energy= 7.61946577213152   | 7.5830602514734    | 7.65587129315646   occ= 0
MO #140 energy= 7.61949788713392   | 7.58311184612413   | 7.65588392814372   occ= 0
MO #141 energy= 7.68346663203378   | 7.64279586211659   | 7.72413740166994   occ= 0
MO #142 energy= 7.68346663203379   | 7.6427958621166    | 7.72413740166995   occ= 0
MO #143 energy= 7.71256290733623   | 7.66688671347325   | 7.75823910120015   occ= 0
MO #144 energy= 7.71957256346293   | 7.68440584675813   | 7.75473928016776   occ= 0
MO #145 energy= 7.91756011612196   | 7.87504201097215   | 7.9600782213391    occ= 0
MO #146 energy= 7.92956936529309   | 7.88467731709564   | 7.97446141346517   occ= 0
MO #147 energy= 7.92956936529309   | 7.88467731709564   | 7.97446141346517   occ= 0
MO #148 energy= 8.08795791437893   | 8.05842947441545   | 8.11748635438222   occ= 0
MO #149 energy= 8.09606076238236   | 8.07360622692789   | 8.11851529783684   occ= 0
MO #150 energy= 8.1824876234232    | 8.15581819142524   | 8.20915705541735   occ= 0
MO #151 energy= 8.3405120651045    | 8.31717865262792   | 8.36384547740645   occ= 0
MO #152 energy= 8.34051206510461   | 8.31717865262805   | 8.36384547740658   occ= 0
MO #153 energy= 9.51025464709371   | 9.50436145263871   | 9.51614784159343   occ= 0
MO #154 energy= 9.51025464709404   | 9.50436145263902   | 9.51614784159377   occ= 0
MO #155 energy= 10.2145166207972   | 10.1885022820668   | 10.2405309595333   occ= 0
MO #156 energy= 10.6615692283346   | 10.6375603710433   | 10.6855780856258   occ= 0
MO #157 energy= 10.663537026499    | 10.6346438328726   | 10.6924302201725   occ= 0
MO #158 energy= 10.6684788680367   | 10.6050057263031   | 10.7319520078048   occ= 0
MO #159 energy= 10.7353627411042   | 10.7335756383278   | 10.7371498438807   occ= 0
MO #160 energy= 10.7353628128684   | 10.7335758117147   | 10.7371498140222   occ= 0
MO #161 energy= 10.8063413056244   | 10.8047526199551   | 10.8079299912936   occ= 0
MO #162 energy= 10.8063413056244   | 10.8047526199551   | 10.8079299912936   occ= 0
MO #163 energy= 11.0140746717552   | 11.0102567222469   | 11.0178926212635   occ= 0
MO #164 energy= 11.0145978727066   | 11.0063994552077   | 11.0227962900297   occ= 0
MO #165 energy= 11.123386846768    | 11.1204819305104   | 11.1262917630277   occ= 0
MO #166 energy= 11.1562030680385   | 11.1528425211032   | 11.1595636149583   occ= 0
MO #167 energy= 11.1562030680385   | 11.1528425211032   | 11.1595636149583   occ= 0
MO #168 energy= 11.682668621849    | 11.6519235943508   | 11.7134136489398   occ= 0
MO #169 energy= 11.6826686218491   | 11.6519235943509   | 11.7134136489398   occ= 0
MO #170 energy= 11.6966144502305   | 11.6938345078698   | 11.6993943925911   occ= 0
MO #171 energy= 11.6966144502305   | 11.6938345078698   | 11.6993943925912   occ= 0
MO #172 energy= 11.8652337470149   | 11.8613954591997   | 11.8690720348085   occ= 0
MO #173 energy= 11.8653730416831   | 11.8624073607547   | 11.8683387226115   occ= 0
MO #174 energy= 12.2097077973449   | 12.1974847847728   | 12.2219308097874   occ= 0
MO #175 energy= 12.6859019067194   | 12.6825070171734   | 12.6892967962658   occ= 0
MO #176 energy= 12.6859576827456   | 12.6825936195065   | 12.6893217459847   occ= 0
MO #177 energy= 12.9785806109053   | 12.974775621061    | 12.9823856007647   occ= 0
MO #178 energy= 12.9785806109053   | 12.974775621061    | 12.9823856007647   occ= 0
MO #179 energy= 13.0561595385132   | 13.0226369271385   | 13.0896821496653   occ= 0
MO #180 energy= 13.0561595385132   | 13.0226369271385   | 13.0896821496653   occ= 0
MO #181 energy= 13.6423869193719   | 13.6352623702278   | 13.6495114685199   occ= 0
MO #182 energy= 14.778796564419    | 14.7144268784789   | 14.843166250127    occ= 0
MO #183 energy= 15.6874694534703   | 15.6227843557369   | 15.752154551211    occ= 0
MO #184 energy= 15.6874694534704   | 15.6227843557369   | 15.7521545512111   occ= 0
MO #185 energy= 15.7567323854444   | 15.6522388256529   | 15.8612259455424   occ= 0
MO #186 energy= 15.7575387897616   | 15.6830338396285   | 15.8320437398947   occ= 0
MO #187 energy= 15.7973887565178   | 15.7056423901534   | 15.8891351232741   occ= 0
MO #188 energy= 15.7973887565178   | 15.7056423901534   | 15.8891351232742   occ= 0
MO #189 energy= 16.3839639203458   | 16.3100564954076   | 16.4578713455748   occ= 0
MO #190 energy= 17.3178139394251   | 17.2737559934609   | 17.3618718853897   occ= 0
MO #191 energy= 17.3178139394251   | 17.2737559934609   | 17.3618718853897   occ= 0
MO #192 energy= 18.5646036376774   | 18.5114895639442   | 18.6177177114139   occ= 0
MO #193 energy= 20.4399675491477   | 20.4326838735814   | 20.4472512247003   occ= 0
MO #194 energy= 21.1660846756938   | 21.1176606466626   | 21.2145087049104   occ= 0
MO #195 energy= 21.1661497948885   | 21.117890546312    | 21.214409043465    occ= 0
MO #196 energy= 21.172526244027    | 21.1087025382771   | 21.2363499496981   occ= 0
MO #197 energy= 21.1725262440271   | 21.108702538277    | 21.236349949698    occ= 0
MO #198 energy= 21.2212193749693   | 21.1439711133881   | 21.2984676364467   occ= 0
MO #199 energy= 21.2325673040151   | 21.1722573903824   | 21.2928772176478   occ= 0
MO #200 energy= 21.306129316532    | 21.237173867996    | 21.3750847646533   occ= 0
MO #201 energy= 21.306129316532    | 21.2371738679961   | 21.3750847646533   occ= 0
MO #202 energy= 21.4535402721713   | 21.3878997736872   | 21.5191807704763   occ= 0
MO #203 energy= 22.5895635543255   | 22.5469984847239   | 22.6321286239249   occ= 0
MO #204 energy= 22.5897166152352   | 22.5473503423539   | 22.6320828881164   occ= 0
MO #205 energy= 22.6067015430581   | 22.5724925816258   | 22.6409105044903   occ= 0
MO #206 energy= 22.6067015430582   | 22.5724925816257   | 22.6409105044902   occ= 0
MO #207 energy= 22.6108324700569   | 22.5646292465011   | 22.6570356936122   occ= 0
MO #208 energy= 22.6108324700569   | 22.5646292465011   | 22.6570356936122   occ= 0
MO #209 energy= 22.7382489736848   | 22.686187579237    | 22.7903103681346   occ= 0
MO #210 energy= 22.7539294004823   | 22.7123070559993   | 22.7955517449652   occ= 0
MO #211 energy= 22.9454702840759   | 22.8993003545956   | 22.9916402135581   occ= 0
MO #212 energy= 22.9717705789354   | 22.9252360565474   | 23.0183051013258   occ= 0
MO #213 energy= 22.9717705789354   | 22.9252360565474   | 23.0183051013258   occ= 0
MO #214 energy= 29.3904193775935   | 29.3640453082808   | 29.4167934469064   occ= 0
 ** Mulliken pop on meta-lowdin orthogonal AOs  **
 ** Mulliken pop  **
pop of  0Fe 3s        1.99992
pop of  0Fe 4s        0.37212
pop of  0Fe 5s        0.01050
pop of  0Fe 6s        0.00185
pop of  0Fe 7s        0.00007
pop of  0Fe 8s        0.00183
pop of  0Fe 9s        0.00116
pop of  0Fe 3px       1.99957
pop of  0Fe 3py       1.99957
pop of  0Fe 3pz       1.99868
pop of  0Fe 4px       0.03153
pop of  0Fe 4py       0.03153
pop of  0Fe 4pz       0.00300
pop of  0Fe 5px       0.00267
pop of  0Fe 5py       0.00267
pop of  0Fe 5pz       0.00124
pop of  0Fe 6px       0.00013
pop of  0Fe 6py       0.00013
pop of  0Fe 6pz       0.00049
pop of  0Fe 7px       0.00002
pop of  0Fe 7py       0.00002
pop of  0Fe 7pz       0.00013
pop of  0Fe 8px       0.00430
pop of  0Fe 8py       0.00430
pop of  0Fe 8pz       0.00148
pop of  0Fe 9px       0.00047
pop of  0Fe 9py       0.00047
pop of  0Fe 9pz       0.00029
pop of  0Fe 3dxy      1.99915
pop of  0Fe 3dyz      1.06791
pop of  0Fe 3dz^2     1.07620
pop of  0Fe 3dxz      1.06791
pop of  0Fe 3dx2-y2    0.99876
pop of  0Fe 4dxy      0.00011
pop of  0Fe 4dyz      0.00198
pop of  0Fe 4dz^2     0.00007
pop of  0Fe 4dxz      0.00198
pop of  0Fe 4dx2-y2    0.00052
pop of  0Fe 5dxy      0.00000
pop of  0Fe 5dyz      0.00019
pop of  0Fe 5dz^2     0.00072
pop of  0Fe 5dxz      0.00019
pop of  0Fe 5dx2-y2    0.00009
pop of  0Fe 6dxy      0.00001
pop of  0Fe 6dyz      0.00004
pop of  0Fe 6dz^2     0.00016
pop of  0Fe 6dxz      0.00004
pop of  0Fe 6dx2-y2    0.00001
pop of  0Fe 7dxy      0.00000
pop of  0Fe 7dyz      0.00126
pop of  0Fe 7dz^2     0.00064
pop of  0Fe 7dxz      0.00126
pop of  0Fe 7dx2-y2    0.00015
pop of  0Fe 8dxy      0.00000
pop of  0Fe 8dyz      0.00020
pop of  0Fe 8dz^2     0.00028
pop of  0Fe 8dxz      0.00020
pop of  0Fe 8dx2-y2    0.00001
pop of  0Fe 4fy^3     0.00001
pop of  0Fe 4fxyz     0.00001
pop of  0Fe 4fyz^2    0.00001
pop of  0Fe 4fz^3     0.00002
pop of  0Fe 4fxz^2    0.00001
pop of  0Fe 4fzx^2    0.00000
pop of  0Fe 4fx^3     0.00001
pop of  0Fe 5fy^3     0.00004
pop of  0Fe 5fxyz     0.00007
pop of  0Fe 5fyz^2    0.00016
pop of  0Fe 5fz^3     0.00022
pop of  0Fe 5fxz^2    0.00016
pop of  0Fe 5fzx^2    0.00003
pop of  0Fe 5fx^3     0.00004
pop of  0Fe 6fy^3     0.00002
pop of  0Fe 6fxyz     0.00033
pop of  0Fe 6fyz^2    0.00023
pop of  0Fe 6fz^3     0.00010
pop of  0Fe 6fxz^2    0.00023
pop of  0Fe 6fzx^2    0.00014
pop of  0Fe 6fx^3     0.00002
pop of  0Fe 7fy^3     0.00000
pop of  0Fe 7fxyz     0.00028
pop of  0Fe 7fyz^2    0.00009
pop of  0Fe 7fz^3     0.00001
pop of  0Fe 7fxz^2    0.00009
pop of  0Fe 7fzx^2    0.00007
pop of  0Fe 7fx^3     0.00000
pop of  0Fe 5g-4      0.00000
pop of  0Fe 5g-3      0.00000
pop of  0Fe 5g-2      0.00000
pop of  0Fe 5g-1      0.00000
pop of  0Fe 5g 0      0.00000
pop of  0Fe 5g 1      0.00000
pop of  0Fe 5g 2      0.00000
pop of  0Fe 5g 3      0.00000
pop of  0Fe 5g 4      0.00000
pop of  0Fe 6g-4      0.00000
pop of  0Fe 6g-3      0.00000
pop of  0Fe 6g-2      0.00000
pop of  0Fe 6g-1      0.00002
pop of  0Fe 6g 0      0.00003
pop of  0Fe 6g 1      0.00002
pop of  0Fe 6g 2      0.00000
pop of  0Fe 6g 3      0.00000
pop of  0Fe 6g 4      0.00000
pop of  0Fe 7g-4      0.00000
pop of  0Fe 7g-3      0.00000
pop of  0Fe 7g-2      0.00000
pop of  0Fe 7g-1      0.00014
pop of  0Fe 7g 0      0.00034
pop of  0Fe 7g 1      0.00014
pop of  0Fe 7g 2      0.00001
pop of  0Fe 7g 3      0.00000
pop of  0Fe 7g 4      0.00000
pop of  0Fe 6h-5      0.00000
pop of  0Fe 6h-4      0.00000
pop of  0Fe 6h-3      0.00000
pop of  0Fe 6h-2      0.00000
pop of  0Fe 6h-1      0.00000
pop of  0Fe 6h 0      0.00000
pop of  0Fe 6h 1      0.00000
pop of  0Fe 6h 2      0.00000
pop of  0Fe 6h 3      0.00000
pop of  0Fe 6h 4      0.00000
pop of  0Fe 6h 5      0.00000
pop of  0Fe 7h-5      0.00000
pop of  0Fe 7h-4      0.00000
pop of  0Fe 7h-3      0.00000
pop of  0Fe 7h-2      0.00000
pop of  0Fe 7h-1      0.00001
pop of  0Fe 7h 0      0.00002
pop of  0Fe 7h 1      0.00001
pop of  0Fe 7h 2      0.00000
pop of  0Fe 7h 3      0.00000
pop of  0Fe 7h 4      0.00000
pop of  0Fe 7h 5      0.00000
pop of  1O 2s        1.89938
pop of  1O 3s        0.00059
pop of  1O 4s        0.00011
pop of  1O 5s        0.00145
pop of  1O 6s        0.00340
pop of  1O 2px       1.84173
pop of  1O 2py       1.84173
pop of  1O 2pz       1.60915
pop of  1O 3px       0.00292
pop of  1O 3py       0.00292
pop of  1O 3pz       0.00113
pop of  1O 4px       0.00049
pop of  1O 4py       0.00049
pop of  1O 4pz       0.00096
pop of  1O 5px       0.01653
pop of  1O 5py       0.01653
pop of  1O 5pz       0.00483
pop of  1O 6px       0.00935
pop of  1O 6py       0.00935
pop of  1O 6pz       0.00155
pop of  1O 3dxy      0.00000
pop of  1O 3dyz      0.00008
pop of  1O 3dz^2     0.00011
pop of  1O 3dxz      0.00008
pop of  1O 3dx2-y2    0.00000
pop of  1O 4dxy      0.00001
pop of  1O 4dyz      0.00091
pop of  1O 4dz^2     0.00129
pop of  1O 4dxz      0.00091
pop of  1O 4dx2-y2    0.00000
pop of  1O 5dxy      0.00000
pop of  1O 5dyz      0.00559
pop of  1O 5dz^2     0.00278
pop of  1O 5dxz      0.00559
pop of  1O 5dx2-y2    0.00001
pop of  1O 6dxy      0.00001
pop of  1O 6dyz      0.00968
pop of  1O 6dz^2     0.00149
pop of  1O 6dxz      0.00968
pop of  1O 6dx2-y2    0.00009
pop of  1O 4fy^3     0.00000
pop of  1O 4fxyz     0.00000
pop of  1O 4fyz^2    0.00001
pop of  1O 4fz^3     0.00002
pop of  1O 4fxz^2    0.00001
pop of  1O 4fzx^2    0.00000
pop of  1O 4fx^3     0.00000
pop of  1O 5fy^3     0.00000
pop of  1O 5fxyz     0.00000
pop of  1O 5fyz^2    0.00028
pop of  1O 5fz^3     0.00014
pop of  1O 5fxz^2    0.00028
pop of  1O 5fzx^2    0.00000
pop of  1O 5fx^3     0.00000
pop of  1O 6fy^3     0.00000
pop of  1O 6fxyz     0.00001
pop of  1O 6fyz^2    0.00137
pop of  1O 6fz^3     0.00001
pop of  1O 6fxz^2    0.00137
pop of  1O 6fzx^2    0.00009
pop of  1O 6fx^3     0.00000
pop of  1O 5g-4      0.00000
pop of  1O 5g-3      0.00000
pop of  1O 5g-2      0.00000
pop of  1O 5g-1      0.00000
pop of  1O 5g 0      0.00001
pop of  1O 5g 1      0.00000
pop of  1O 5g 2      0.00000
pop of  1O 5g 3      0.00000
pop of  1O 5g 4      0.00000
pop of  1O 6g-4      0.00000
pop of  1O 6g-3      0.00000
pop of  1O 6g-2      0.00000
pop of  1O 6g-1      0.00006
pop of  1O 6g 0      0.00004
pop of  1O 6g 1      0.00006
pop of  1O 6g 2      0.00001
pop of  1O 6g 3      0.00000
pop of  1O 6g 4      0.00000
 ** Mulliken atomic charges  **
charge of  0Fe =      1.30668
charge of  1O =     -1.30668

******** <class 'pyscf.mcscf.mc1step.CASSCF'> flags ********
CAS (8e+4e, 9o), ncore = 5, nvir = 200
max_cycle_macro = 50
max_cycle_micro = 4
conv_tol = 1e-07
conv_tol_grad = None
orbital rotation max_stepsize = 0.02
augmented hessian ah_max_cycle = 30
augmented hessian ah_conv_tol = 1e-12
augmented hessian ah_linear dependence = 1e-14
augmented hessian ah_level shift = 0
augmented hessian ah_start_tol = 2.5
augmented hessian ah_start_cycle = 3
augmented hessian ah_grad_trust_region = 3
kf_trust_region = 3
kf_interval = 4
ci_response_space = 4
ci_grad_trust_region = 3
with_dep4 0
natorb = False
canonicalization = True
chkfile = ./scratch/166815/tmp0VplcW
max_memory 4000 MB (current use 2674 MB)
internal_rotation = False

******** SHCI flags ********
executable             = /home/bamu3429/softwares/dice/Dice
mpiprefix              = mpirun -np 28
scratchDirectory       = ./scratch/166815
integralFile           = ./FCIDUMP
configFile             = ./input.dat
outputFile             = ./output.dat
maxIter                = 6
sweep_iter             = []
sweep_epsilon          = []
nPTiter                = 0
Stochastic             = True
fullrestart            = False
restart                = False
num_thrds              = 12
memory                 = None

CASCI E = -138.683025629484  S^2 = 6.0000000
Set conv_tol_grad to 0.000316228
macro iter 1 (21 JK  4 micro), CASSCF E = -138.734653609456  dE = -0.05162798  S^2 = 6.0000000
               |grad[o]|=0.0806  |grad[c]|= None  |ddm|=0.414
macro iter 2 (14 JK  4 micro), CASSCF E = -138.75692831358  dE = -0.022274704  S^2 = 6.0000000
               |grad[o]|=0.155  |grad[c]|= None  |ddm|=0.347
macro iter 3 (10 JK  4 micro), CASSCF E = -138.757068919924  dE = -0.00014060634  S^2 = 6.0000000
               |grad[o]|=0.0149  |grad[c]|= None  |ddm|=0.0192
macro iter 4 (9 JK  3 micro), CASSCF E = -138.757069118222  dE = -1.9829821e-07  S^2 = 6.0000000
               |grad[o]|=0.000517  |grad[c]|= None  |ddm|=0.00071
macro iter 5 (3 JK  1 micro), CASSCF E = -138.757069121013  dE = -2.7908129e-09  S^2 = 6.0000000
               |grad[o]|=6.41e-05  |grad[c]|= None  |ddm|=    0
1-step CASSCF converged in 5 macro (57 JK 16 micro) steps
CASSCF canonicalization
CASSCF energy = -138.757069121013


--------------------------------------------------
                 ICMPSPT CALCULATION              
--------------------------------------------------

Perturbation type: MRLCC
With fully internally contracted scheme
With third order correction

Preparing necessary RDMs
......production of RDMs took      62.00 sec
Reading binary 4RDM from DICE
......reading the RDM took         29.86 sec

(GOOD) Trace 4RDM:  11880.0 =   12*   11*   10*    9
(GOOD) Trace 3RDM:   1320.0 =   12*   11*   10
(GOOD) Trace 2RDM:    132.0 =   12*   11
(GOOD) Trace 1RDM:     12.0 =   12

Producing the integrals
......production of INT took     600.25 sec

Energy_core =  -131.438394002
Energy      =  -138.757069121

WARNING: Have to use natural orbitals from CAASCF
         offdiagonal elements: 0.984365340592

Basic ingredients written to int/
......savings of INGREDIENTS took     254.48 sec

Second-order:
perturber CCVV --        -0.125491903
perturber CCAV --        -0.041594848
perturber ACVV --        -0.281721617
perturber CCAA --        -0.018251781
perturber AAVV --        -0.307945093
perturber CAAV --        -0.144511822
perturber AAAV --        -0.064173858
perturber AAAC --        -0.001756551
Total:                   -0.985447473

Third-order:             -0.000624157

Total PT       --        -0.986071630

