 &FCI NORB=9 ,NELEC=15 ,MS2=1,
  ORBSYM=1,1,1,1,1,1,1,1,1,
  ISYM=1,
 &END
  1.072501404816e+00    1  1  1  1
 -3.169769016160e-02    2  1  1  1
  3.741841886280e-02    2  1  2  1
  7.387245653131e-01    2  2  1  1
 -4.853918161430e-04    2  2  2  1
  6.887801692025e-01    2  2  2  2
 -9.559834669081e-06    3  1  1  1
  6.559120847149e-07    3  1  2  1
 -7.858679836705e-07    3  1  2  2
  3.992210976338e-02    3  1  3  1
  4.671409880181e-08    3  2  1  1
 -5.139041752894e-08    3  2  2  1
  1.066078879705e-09    3  2  2  2
 -4.664039562368e-03    3  2  3  1
  1.790135189355e-02    3  2  3  2
  9.302954949101e-01    3  3  1  1
  1.582460359702e-02    3  3  2  1
  7.460962961471e-01    3  3  2  2
 -3.909489415219e-07    3  3  3  1
  2.457766173569e-09    3  3  3  2
  1.026042790419e+00    3  3  3  3
 -1.069722896875e-02    4  1  1  1
 -1.006501075969e-02    4  1  2  1
 -1.639561278810e-02    4  1  2  2
  2.007565730408e-06    4  1  3  1
 -3.240171295637e-07    4  1  3  2
 -3.693325300790e-02    4  1  3  3
  3.426796887180e-02    4  1  4  1
 -5.665490532472e-02    4  2  1  1
 -3.970029860832e-03    4  2  2  1
 -4.543436761406e-02    4  2  2  2
 -1.074066650602e-06    4  2  3  1
 -1.623515988984e-09    4  2  3  2
 -7.347204530053e-02    4  2  3  3
  2.081968684849e-03    4  2  4  1
  6.870945863086e-02    4  2  4  2
  2.362045180165e-06    4  3  1  1
  7.734359323278e-07    4  3  2  1
  5.237497350975e-09    4  3  2  2
 -1.145753233921e-02    4  3  3  1
 -1.321150876142e-03    4  3  3  2
  6.641463245286e-09    4  3  3  3
 -2.028741941802e-06    4  3  4  1
  2.719268482697e-09    4  3  4  2
  1.701977616552e-02    4  3  4  3
  4.287115738943e-01    4  4  1  1
 -9.094022496678e-03    4  4  2  1
  5.053762472227e-01    4  4  2  2
 -2.937732516798e-06    4  4  3  1
 -7.501269185289e-09    4  4  3  2
  3.827201377546e-01    4  4  3  3
  1.075237177934e-02    4  4  4  1
  4.132581088793e-02    4  4  4  2
  2.062290907573e-08    4  4  4  3
  7.088838519042e-01    4  4  4  4
  1.716111124109e-06    5  1  1  1
  4.670998785825e-06    5  1  2  1
 -9.071161447349e-07    5  1  2  2
 -2.388910629745e-02    5  1  3  1
  1.176553797101e-03    5  1  3  2
 -2.670999640225e-06    5  1  3  3
 -4.929912313198e-06    5  1  4  1
  3.025800972598e-07    5  1  4  2
  2.357566104795e-02    5  1  4  3
  1.847044240300e-06    5  1  4  4
  7.814357063086e-02    5  1  5  1
  1.031685401342e-06    5  2  1  1
 -7.459457782329e-08    5  2  2  1
 -1.619525162256e-06    5  2  2  2
 -8.949457015036e-03    5  2  3  1
  2.460060119784e-06    5  2  3  2
 -1.871673532648e-06    5  2  3  3
 -1.489075468803e-07    5  2  4  1
  1.385602808195e-06    5  2  4  2
 -1.227931126483e-04    5  2  4  3
  1.836622689423e-06    5  2  4  4
  3.803296898610e-03    5  2  5  1
  3.121307944292e-02    5  2  5  2
 -2.692019968997e-03    5  3  1  1
  1.836859908041e-03    5  3  2  1
 -4.635823495829e-05    5  3  2  2
 -3.965537125595e-07    5  3  3  1
 -2.250628476601e-07    5  3  3  2
 -1.520014688858e-05    5  3  3  3
  1.182832295389e-02    5  3  4  1
  2.100795316071e-05    5  3  4  2
 -1.125082371347e-06    5  3  4  3
 -1.243785320385e-04    5  3  4  4
  1.038414591352e-06    5  3  5  1
 -8.046554834264e-08    5  3  5  2
  3.970431958058e-02    5  3  5  3
 -2.351072052058e-05    5  4  1  1
 -8.774308424176e-07    5  4  2  1
 -9.024525027911e-06    5  4  2  2
  7.853077355766e-03    5  4  3  1
  7.865427542414e-05    5  4  3  2
 -2.380348451293e-05    5  4  3  3
  2.283969081009e-06    5  4  4  1
  5.079377013734e-06    5  4  4  2
 -1.915442666415e-04    5  4  4  3
  1.373732773477e-05    5  4  4  4
 -2.467758017080e-03    5  4  5  1
 -8.477626178108e-03    5  4  5  2
  2.097861936768e-07    5  4  5  3
  4.677085953491e-03    5  4  5  4
  9.724220712917e-01    5  5  1  1
  1.176758752545e-02    5  5  2  1
  7.241475730847e-01    5  5  2  2
 -8.942140429380e-08    5  5  3  1
  1.681935689175e-08    5  5  3  2
  9.568060587313e-01    5  5  3  3
 -2.964121980864e-02    5  5  4  1
 -7.874371493892e-02    5  5  4  2
  5.280434729524e-07    5  5  4  3
  3.637324139064e-01    5  5  4  4
 -1.510795723776e-06    5  5  5  1
 -2.623869548943e-06    5  5  5  2
 -1.283496387112e-05    5  5  5  3
 -2.778192380567e-05    5  5  5  4
  1.047039965938e+00    5  5  5  5
  8.577930793201e-02    6  1  1  1
 -1.469831865161e-02    6  1  2  1
  3.592929890188e-02    6  1  2  2
 -3.903111224898e-06    6  1  3  1
  5.034004794831e-07    6  1  3  2
  4.981910907092e-02    6  1  3  3
 -6.878259865351e-03    6  1  4  1
 -6.256592029845e-03    6  1  4  2
  1.854171576238e-06    6  1  4  3
 -1.182299554908e-03    6  1  4  4
  1.753580505256e-06    6  1  5  1
  3.578000396481e-06    6  1  5  2
 -1.884970558284e-02    6  1  5  3
 -4.538835004207e-06    6  1  5  4
  7.838475605107e-02    6  1  5  5
  4.494968308598e-02    6  1  6  1
 -3.049345913017e-02    6  2  1  1
  1.679730397705e-02    6  2  2  1
 -4.718063681660e-03    6  2  2  2
  8.007926628530e-07    6  2  3  1
 -8.380722779181e-08    6  2  3  2
 -7.313601898766e-03    6  2  3  3
 -1.204222797097e-02    6  2  4  1
 -2.388884774096e-03    6  2  4  2
  1.267240925669e-06    6  2  4  3
 -5.828233169297e-03    6  2  4  4
  5.776046775833e-06    6  2  5  1
  1.206962436321e-07    6  2  5  2
 -5.372999634433e-03    6  2  5  3
 -5.590804489027e-07    6  2  5  4
  2.976006454305e-03    6  2  5  5
  3.670927340057e-03    6  2  6  1
  4.252132120888e-02    6  2  6  2
 -7.549050833828e-06    6  3  1  1
  6.498818798758e-07    6  3  2  1
 -8.918361566832e-07    6  3  2  2
  3.180252277417e-04    6  3  3  1
  2.132021085253e-03    6  3  3  2
 -4.034327603566e-07    6  3  3  3
  1.487904004019e-06    6  3  4  1
 -2.164536832903e-06    6  3  4  2
 -9.741108031505e-03    6  3  4  3
 -3.032816368680e-06    6  3  4  4
 -1.566549865566e-02    6  3  5  1
  8.160029194072e-03    6  3  5  2
 -3.393974212042e-07    6  3  5  3
  1.686328051899e-03    6  3  5  4
 -2.549934341593e-07    6  3  5  5
  9.149546346490e-07    6  3  6  1
  1.144173737155e-06    6  3  6  2
  3.459261958779e-02    6  3  6  3
 -6.261620782556e-02    6  4  1  1
 -2.013232619201e-03    6  4  2  1
 -3.144473534028e-02    6  4  2  2
  1.554507462629e-06    6  4  3  1
 -9.763958812899e-08    6  4  3  2
 -6.592578870613e-02    6  4  3  3
  2.173436901215e-03    6  4  4  1
  9.956724611438e-03    6  4  4  2
 -1.973897082537e-06    6  4  4  3
  2.872836834545e-02    6  4  4  4
 -4.237057688083e-06    6  4  5  1
  1.216620308239e-07    6  4  5  2
  6.234021760037e-03    6  4  5  3
  3.979820665580e-06    6  4  5  4
 -6.652525823964e-02    6  4  5  5
 -1.369384757634e-02    6  4  6  1
 -7.558553890906e-03    6  4  6  2
  1.123999181616e-06    6  4  6  3
  1.651678172050e-02    6  4  6  4
  1.013370299915e-06    6  5  1  1
  6.573304958143e-06    6  5  2  1
 -6.777095877585e-07    6  5  2  2
 -1.405776767558e-02    6  5  3  1
 -6.189297999287e-03    6  5  3  2
 -1.730857633760e-06    6  5  3  3
 -6.073012556876e-06    6  5  4  1
  9.603839140546e-08    6  5  4  2
  2.401374352917e-02    6  5  4  3
  1.278221269785e-06    6  5  4  4
  6.361993515904e-02    6  5  5  1
  2.907799729692e-03    6  5  5  2
  9.475629925267e-07    6  5  5  3
 -3.732074012177e-03    6  5  5  4
 -1.514159150051e-07    6  5  5  5
  6.764311727110e-07    6  5  6  1
  8.051685227961e-06    6  5  6  2
 -2.440518237042e-02    6  5  6  3
 -5.390931121443e-06    6  5  6  4
  1.109449207476e-01    6  5  6  5
  9.271848032020e-01    6  6  1  1
  2.731095915947e-02    6  6  2  1
  7.562012068546e-01    6  6  2  2
  4.844849211582e-06    6  6  3  1
  7.277043377638e-07    6  6  3  2
  9.742717071019e-01    6  6  3  3
 -4.209055881746e-02    6  6  4  1
 -9.653213380386e-02    6  6  4  2
 -9.543964010228e-07    6  6  4  3
  3.595474052465e-01    6  6  4  4
 -3.005394114726e-06    6  6  5  1
  1.803235078730e-06    6  6  5  2
 -4.939348818198e-03    6  6  5  3
 -2.882827753212e-05    6  6  5  4
  1.036556644433e+00    6  6  5  5
  7.050091685649e-02    6  6  6  1
  5.495123426722e-02    6  6  6  2
  1.348714455118e-05    6  6  6  3
 -7.751645409590e-02    6  6  6  4
 -2.316250075567e-06    6  6  6  5
  1.251546845164e+00    6  6  6  6
 -3.817565637477e-02    7  1  1  1
  2.006099772453e-02    7  1  2  1
 -8.801529504086e-03    7  1  2  2
  1.044883999349e-06    7  1  3  1
 -6.315656031332e-08    7  1  3  2
 -1.081649031963e-02    7  1  3  3
  1.428993737190e-03    7  1  4  1
 -5.601334843732e-03    7  1  4  2
 -9.744966030577e-08    7  1  4  3
 -1.373333841075e-03    7  1  4  4
  2.046833676495e-06    7  1  5  1
 -3.086049183594e-07    7  1  5  2
  5.537627076990e-03    7  1  5  3
  5.475697557288e-07    7  1  5  4
 -1.296536633093e-02    7  1  5  5
 -1.500579157251e-02    7  1  6  1
  7.991806181503e-03    7  1  6  2
  9.500973893886e-07    7  1  6  3
  2.835703136884e-03    7  1  6  4
  3.004306168620e-06    7  1  6  5
 -6.711909438958e-03    7  1  6  6
  2.063265707497e-02    7  1  7  1
  2.438627787899e-01    7  2  1  1
  7.213617590734e-03    7  2  2  1
  1.163182286812e-01    7  2  2  2
  8.625554786960e-07    7  2  3  1
  1.600576176111e-09    7  2  3  2
  2.753431224154e-01    7  2  3  3
 -2.151458100162e-02    7  2  4  1
 -3.549124552660e-02    7  2  4  2
  3.353863071480e-09    7  2  4  3
 -1.401790408135e-01    7  2  4  4
 -1.874883233323e-06    7  2  5  1
 -8.809951051918e-07    7  2  5  2
  4.685728760690e-05    7  2  5  3
 -1.702484695348e-05    7  2  5  4
  2.730146732210e-01    7  2  5  5
  2.907346505821e-02    7  2  6  1
  3.737811189511e-03    7  2  6  2
  1.112280145179e-06    7  2  6  3
 -4.675158719916e-02    7  2  6  4
 -1.346294386994e-06    7  2  6  5
  3.006519168620e-01    7  2  6  6
 -1.030664580844e-02    7  2  7  1
  2.195491046433e-01    7  2  7  2
  7.717423678485e-07    7  3  1  1
  2.555419499450e-07    7  3  2  1
 -1.332360873795e-09    7  3  2  2
 -6.965835400507e-03    7  3  3  1
  1.005067670549e-02    7  3  3  2
 -3.291859886509e-09    7  3  3  3
 -8.281040244577e-07    7  3  4  1
  6.771240093538e-10    7  3  4  2
  6.513429491063e-03    7  3  4  3
  2.261804256840e-09    7  3  4  4
  8.076489675088e-03    7  3  5  1
 -6.944756147933e-06    7  3  5  2
 -1.189516089139e-08    7  3  5  3
 -4.444013881764e-06    7  3  5  4
  1.763563684188e-07    7  3  5  5
  8.241475970197e-07    7  3  6  1
  3.238778426279e-07    7  3  6  2
 -1.168802113220e-03    7  3  6  3
 -7.130321932621e-07    7  3  6  4
  2.756669818947e-03    7  3  6  5
  2.975880629947e-07    7  3  6  6
 -1.468444459493e-07    7  3  7  1
 -1.009125083025e-09    7  3  7  2
  1.462272770092e-02    7  3  7  3
  5.981985928333e-02    7  4  1  1
 -9.648523362698e-03    7  4  2  1
  4.038327824657e-02    7  4  2  2
 -2.133560178759e-06    7  4  3  1
 -4.560925043759e-10    7  4  3  2
  5.068379634232e-02    7  4  3  3
 -2.563030326590e-03    7  4  4  1
 -5.154410153971e-02    7  4  4  2
  1.181497639249e-08    7  4  4  3
 -6.317163960242e-03    7  4  4  4
  6.198894972239e-09    7  4  5  1
 -3.003760203108e-06    7  4  5  2
 -5.266677426755e-05    7  4  5  3
 -1.522207625022e-06    7  4  5  4
  3.858911876795e-02    7  4  5  5
  4.106567684405e-03    7  4  6  1
 -1.582584704819e-02    7  4  6  2
 -3.135590152351e-06    7  4  6  3
 -6.153115884346e-03    7  4  6  4
 -2.405573306333e-07    7  4  6  5
  1.714422657895e-02    7  4  6  6
 -3.464630887972e-03    7  4  7  1
  1.069365907927e-02    7  4  7  2
 -6.892086309468e-10    7  4  7  3
  8.091326707383e-02    7  4  7  4
  2.397124238835e-06    7  5  1  1
 -4.880770083234e-07    7  5  2  1
  9.537656193620e-07    7  5  2  2
 -3.931576042331e-03    7  5  3  1
  1.431277067795e-05    7  5  3  2
  7.820685269715e-07    7  5  3  3
 -1.021122097314e-08    7  5  4  1
 -2.825610554236e-06    7  5  4  2
 -1.250512729828e-04    7  5  4  3
  4.557600464139e-07    7  5  4  4
  1.620057070265e-03    7  5  5  1
  2.022832911596e-02    7  5  5  2
  2.728274647213e-08    7  5  5  3
 -4.280991632194e-03    7  5  5  4
 -2.607461711921e-07    7  5  5  5
  2.150486419349e-06    7  5  6  1
 -5.791309005795e-07    7  5  6  2
  6.979444263311e-03    7  5  6  3
 -1.009360325202e-07    7  5  6  4
  1.286961823896e-03    7  5  6  5
  2.040703194947e-06    7  5  6  6
 -6.310228512323e-08    7  5  7  1
 -5.559756217731e-07    7  5  7  2
 -1.569645205358e-05    7  5  7  3
  2.591063053227e-06    7  5  7  4
  1.607071779195e-02    7  5  7  5
 -3.217850078131e-02    7  6  1  1
  1.223200175755e-02    7  6  2  1
 -5.740166922459e-03    7  6  2  2
  1.150744513635e-06    7  6  3  1
 -7.286756169433e-08    7  6  3  2
 -1.435409329983e-02    7  6  3  3
 -6.193403881514e-03    7  6  4  1
 -1.149384552513e-02    7  6  4  2
  2.049424337215e-07    7  6  4  3
 -4.968526478448e-03    7  6  4  4
  3.040346305038e-06    7  6  5  1
 -3.356591647704e-07    7  6  5  2
 -8.476659516710e-04    7  6  5  3
  1.784754878141e-09    7  6  5  4
 -6.505441445526e-03    7  6  5  5
 -1.947731609445e-03    7  6  6  1
  2.730029779696e-02    7  6  6  2
  1.177788800955e-06    7  6  6  3
 -2.746706451145e-03    7  6  6  4
  4.678916669075e-06    7  6  6  5
  2.927194749678e-02    7  6  6  6
  6.123476261850e-03    7  6  7  1
 -6.469886850828e-03    7  6  7  2
 -1.570736037929e-07    7  6  7  3
 -1.252303396755e-03    7  6  7  4
  1.759753307383e-08    7  6  7  5
  2.219690683245e-02    7  6  7  6
  5.946114366906e-01    7  7  1  1
 -8.134140624077e-03    7  7  2  1
  5.820248793761e-01    7  7  2  2
 -2.293896104244e-06    7  7  3  1
 -4.537882980780e-10    7  7  3  2
  5.792471043073e-01    7  7  3  3
 -7.340044825887e-03    7  7  4  1
 -2.006796804026e-02    7  7  4  2
  7.453618265013e-09    7  7  4  3
  5.268634921570e-01    7  7  4  4
 -1.360753299288e-08    7  7  5  1
 -1.031803939121e-06    7  7  5  2
 -9.721547177008e-05    7  7  5  3
 -1.288997238560e-06    7  7  5  4
  5.584098357519e-01    7  7  5  5
  2.023209801841e-02    7  7  6  1
 -1.062513131643e-02    7  7  6  2
 -2.895295465063e-06    7  7  6  3
 -1.112321237407e-02    7  7  6  4
 -1.661194660227e-07    7  7  6  5
  5.613344476868e-01    7  7  6  6
 -8.654813923566e-03    7  7  7  1
  2.400981993972e-02    7  7  7  2
 -1.208674742148e-09    7  7  7  3
  4.236156827287e-02    7  7  7  4
  1.335217958082e-06    7  7  7  5
 -7.476545094826e-03    7  7  7  6
  5.400866216697e-01    7  7  7  7
  2.474043869182e-06    8  1  1  1
 -3.204291431943e-08    8  1  2  1
  5.994354397602e-07    8  1  2  2
 -5.930360928298e-03    8  1  3  1
  7.450882071108e-05    8  1  3  2
  9.432253214095e-07    8  1  3  3
 -3.888808495185e-07    8  1  4  1
  8.552546647861e-08    8  1  4  2
  2.780541662850e-03    8  1  4  3
  4.636092964220e-07    8  1  4  4
  3.898697840122e-03    8  1  5  1
  1.923290835958e-03    8  1  5  2
  1.102539744055e-07    8  1  5  3
 -1.333320079149e-03    8  1  5  4
  9.562984364559e-07    8  1  5  5
  8.117147739431e-07    8  1  6  1
 -8.546476289173e-08    8  1  6  2
 -7.770503722029e-05    8  1  6  3
 -3.549283847224e-07    8  1  6  4
  2.461130484371e-03    8  1  6  5
  2.514561290765e-07    8  1  6  6
 -1.998987994277e-07    8  1  7  1
  2.915847070227e-07    8  1  7  2
  1.925467248489e-03    8  1  7  3
  3.033498251025e-07    8  1  7  4
  9.457589974490e-04    8  1  7  5
 -2.207390426509e-07    8  1  7  6
  5.893904866095e-07    8  1  7  7
  5.150199649000e-03    8  1  8  1
  2.241043017899e-07    8  2  1  1
  1.118640427818e-07    8  2  2  1
 -1.338362063386e-10    8  2  2  2
 -9.415146040498e-04    8  2  3  1
  4.999950927063e-04    8  2  3  2
 -2.254915818612e-10    8  2  3  3
 -1.088846099671e-07    8  2  4  1
 -5.006999745876e-10    8  2  4  2
  2.150684153991e-04    8  2  4  3
  2.290315089984e-09    8  2  4  4
  2.398750846134e-03    8  2  5  1
  5.043831687965e-06    8  2  5  2
 -1.647813648388e-08    8  2  5  3
 -3.020047996389e-05    8  2  5  4
  4.945589687980e-08    8  2  5  5
  5.685738343842e-08    8  2  6  1
  1.418253578934e-07    8  2  6  2
 -1.021347123343e-03    8  2  6  3
 -1.403428879117e-07    8  2  6  4
  3.125279155735e-03    8  2  6  5
 -2.068153948554e-07    8  2  6  6
  8.894129972074e-08    8  2  7  1
  1.622721455939e-10    8  2  7  2
 -4.352474172647e-03    8  2  7  3
 -8.485387130352e-10    8  2  7  4
  2.127028423147e-06    8  2  7  5
  1.116226696325e-07    8  2  7  6
 -4.614759130321e-10    8  2  7  7
 -4.237190114472e-04    8  2  8  1
  1.400968273482e-02    8  2  8  2
 -8.427432548347e-02    8  3  1  1
 -3.971283037989e-03    8  3  2  1
 -4.426725684170e-02    8  3  2  2
 -1.823613721798e-07    8  3  3  1
 -4.774999571222e-10    8  3  3  2
 -1.021109040713e-01    8  3  3  3
  7.311961930561e-03    8  3  4  1
  9.851523679561e-03    8  3  4  2
 -1.886855862390e-09    8  3  4  3
  3.273790734167e-02    8  3  4  4
  6.027500653593e-07    8  3  5  1
  1.559737267567e-07    8  3  5  2
 -8.771832741220e-06    8  3  5  3
  5.283197305432e-06    8  3  5  4
 -9.454799696107e-02    8  3  5  5
 -8.262962335060e-03    8  3  6  1
 -5.261672743862e-04    8  3  6  2
 -2.447272401890e-07    8  3  6  3
  1.377857614152e-02    8  3  6  4
  3.911712514832e-07    8  3  6  5
 -9.887845696780e-02    8  3  6  6
  2.512522377860e-03    8  3  7  1
 -6.073026891812e-02    8  3  7  2
  1.216332003982e-10    8  3  7  3
 -1.487328775582e-03    8  3  7  4
  2.113599254157e-07    8  3  7  5
  2.503104652907e-03    8  3  7  6
 -1.580701494071e-02    8  3  7  7
 -1.338782063161e-07    8  3  8  1
 -1.627999019273e-10    8  3  8  2
  2.167259277265e-02    8  3  8  3
 -7.802189481021e-07    8  4  1  1
 -2.967461081324e-07    8  4  2  1
 -3.838267598107e-09    8  4  2  2
  5.486169901752e-03    8  4  3  1
 -4.322477109217e-03    8  4  3  2
 -6.788529458027e-09    8  4  3  3
  5.514067915076e-07    8  4  4  1
  7.392961204510e-10    8  4  4  2
  1.056825159034e-02    8  4  4  3
 -5.981979482257e-09    8  4  4  4
 -7.786360987394e-03    8  4  5  1
  6.606234570589e-06    8  4  5  2
  8.038292693795e-07    8  4  5  3
  6.853002872714e-05    8  4  5  4
 -1.563053013145e-07    8  4  5  5
 -5.187349941230e-07    8  4  6  1
 -4.054322155707e-07    8  4  6  2
  3.934784024056e-03    8  4  6  3
  5.605054455521e-07    8  4  6  4
 -7.485446961317e-03    8  4  6  5
  2.865590172244e-07    8  4  6  6
 -1.552316222825e-07    8  4  7  1
 -3.810817431583e-09    8  4  7  2
  4.587273846120e-03    8  4  7  3
 -1.238643165328e-09    8  4  7  4
  1.213748524224e-05    8  4  7  5
 -2.465901541934e-07    8  4  7  6
 -2.401778873314e-09    8  4  7  7
  5.874093178448e-03    8  4  8  1
  2.244717845718e-03    8  4  8  2
 -1.134832132025e-09    8  4  8  3
  1.374255322214e-01    8  4  8  4
  3.489125239605e-04    8  5  1  1
  3.410720118049e-04    8  5  2  1
  2.726498608708e-05    8  5  2  2
  2.186802572470e-07    8  5  3  1
 -1.790411377568e-07    8  5  3  2
  4.035558657506e-05    8  5  3  3
 -1.616150123905e-03    8  5  4  1
 -8.070027356987e-06    8  5  4  2
  7.237373937721e-07    8  5  4  3
  3.658286327455e-05    8  5  4  4
 -2.027714090530e-07    8  5  5  1
  2.375556641062e-08    8  5  5  2
 -5.735177263398e-03    8  5  5  3
 -2.070001703325e-08    8  5  5  4
  5.327701875458e-05    8  5  5  5
  2.863179234963e-03    8  5  6  1
  1.264597744780e-03    8  5  6  2
  1.498875858570e-07    8  5  6  3
 -1.184853933178e-03    8  5  6  4
 -1.536275822102e-07    8  5  6  5
  1.039150438917e-03    8  5  6  6
 -7.772049290538e-04    8  5  7  1
  1.229371456709e-05    8  5  7  2
  2.634876318366e-07    8  5  7  3
  6.976078102892e-06    8  5  7  4
  1.147582055879e-08    8  5  7  5
  2.833215252794e-04    8  5  7  6
  2.288353640812e-05    8  5  7  7
  3.463402307500e-07    8  5  8  1
  3.749764604242e-08    8  5  8  2
 -5.769692528354e-06    8  5  8  3
  5.666844395398e-06    8  5  8  4
  1.149220469983e-03    8  5  8  5
  2.213528917491e-06    8  6  1  1
 -6.202344730678e-08    8  6  2  1
  7.332379609001e-07    8  6  2  2
 -1.296984990181e-04    8  6  3  1
 -7.130557772516e-04    8  6  3  2
  1.162515236706e-06    8  6  3  3
 -2.753152373758e-07    8  6  4  1
  2.315164259735e-07    8  6  4  2
  2.672497932141e-03    8  6  4  3
  4.787367487967e-07    8  6  4  4
  2.060788642262e-03    8  6  5  1
 -6.219016016773e-04    8  6  5  2
  1.009704202818e-07    8  6  5  3
 -4.552393430051e-04    8  6  5  4
  1.193998800163e-06    8  6  5  5
  5.906769053591e-08    8  6  6  1
 -2.023462405044e-07    8  6  6  2
 -4.507008839860e-03    8  6  6  3
 -2.647821139112e-07    8  6  6  4
  3.238244303730e-03    8  6  6  5
 -6.877248218363e-07    8  6  6  6
 -1.917776610682e-07    8  6  7  1
  3.582574488392e-07    8  6  7  2
  7.383383160749e-04    8  6  7  3
  4.583335381517e-07    8  6  7  4
 -7.823006588901e-04    8  6  7  5
 -2.344832725837e-07    8  6  7  6
  7.387243771102e-07    8  6  7  7
 -6.836612698920e-04    8  6  8  1
  2.002901006029e-04    8  6  8  2
 -1.683097790321e-07    8  6  8  3
  1.243338962938e-02    8  6  8  4
  4.871862233516e-07    8  6  8  5
  2.336214347099e-03    8  6  8  6
 -4.179618010482e-07    8  7  1  1
 -1.364188131546e-07    8  7  2  1
 -4.274229779822e-10    8  7  2  2
  3.556181197587e-03    8  7  3  1
 -5.844123550347e-03    8  7  3  2
 -1.347681041320e-10    8  7  3  3
  3.156594817871e-07    8  7  4  1
 -1.531297186431e-10    8  7  4  2
  5.009272166144e-04    8  7  4  3
 -2.548468302315e-09    8  7  4  4
 -4.381954726489e-03    8  7  5  1
 -3.957492291970e-06    8  7  5  2
  1.397395907716e-07    8  7  5  3
  2.393817169909e-05    8  7  5  4
 -8.496608323733e-08    8  7  5  5
 -3.004436474837e-07    8  7  6  1
 -1.710992618222e-07    8  7  6  2
  1.278503194818e-03    8  7  6  3
  2.934035002071e-07    8  7  6  4
 -3.073982348575e-03    8  7  6  5
  6.924627488274e-08    8  7  6  6
 -9.741906763992e-08    8  7  7  1
 -4.472528465937e-10    8  7  7  2
  2.038339056012e-03    8  7  7  3
  1.506064807509e-10    8  7  7  4
 -4.489096680832e-06    8  7  7  5
 -1.273460664431e-07    8  7  7  6
 -3.885596897873e-10    8  7  7  7
  1.064010554696e-03    8  7  8  1
 -1.589203175972e-02    8  7  8  2
 -2.284218300505e-11    8  7  8  3
  1.277753956477e-02    8  7  8  4
  5.971923185119e-07    8  7  8  5
  1.111895082845e-03    8  7  8  6
  2.194627582219e-02    8  7  8  7
  3.615009169824e-01    8  8  1  1
 -8.688569136442e-03    8  8  2  1
  4.562241170001e-01    8  8  2  2
 -1.816667781945e-06    8  8  3  1
 -1.403369409964e-09    8  8  3  2
  3.228150106042e-01    8  8  3  3
  1.413610240124e-02    8  8  4  1
  2.486263250275e-02    8  8  4  2
 -8.793993961159e-10    8  8  4  3
  6.939296434695e-01    8  8  4  4
  1.769443624738e-06    8  8  5  1
  4.508644091083e-07    8  8  5  2
 -8.290817528905e-05    8  8  5  3
  1.597577240485e-05    8  8  5  4
  3.055537540064e-01    8  8  5  5
 -7.276346043588e-03    8  8  6  1
 -6.943053371997e-03    8  8  6  2
 -2.308838192347e-06    8  8  6  3
  3.580595239693e-02    8  8  6  4
  1.202724168641e-06    8  8  6  5
  2.984950979480e-01    8  8  6  6
  3.212318630278e-03    8  8  7  1
 -1.619972085497e-01    8  8  7  2
  9.727933068455e-11    8  8  7  3
  1.343993931048e-02    8  8  7  4
  1.095455343827e-06    8  8  7  5
 -5.128965939480e-04    8  8  7  6
  4.933266126799e-01    8  8  7  7
  1.770609371511e-07    8  8  8  1
 -3.052467774124e-10    8  8  8  2
  4.874822045867e-02    8  8  8  3
  3.001218372999e-09    8  8  8  4
  8.002344295349e-06    8  8  8  5
  2.233072506485e-07    8  8  8  6
  2.551615953449e-10    8  8  8  7
  7.473298360537e-01    8  8  8  8
 -1.927598947181e-02    9  1  1  1
  1.681975499281e-02    9  1  2  1
 -5.167242360130e-04    9  1  2  2
  2.110685376515e-07    9  1  3  1
 -1.287476968099e-07    9  1  3  2
  1.638472965955e-03    9  1  3  3
 -4.492608362816e-03    9  1  4  1
 -3.139418423057e-03    9  1  4  2
  4.091981700015e-07    9  1  4  3
 -1.185904744479e-04    9  1  4  4
  2.626786956997e-06    9  1  5  1
 -9.851627817469e-08    9  1  5  2
  2.481688023641e-03    9  1  5  3
 -4.642180010315e-08    9  1  5  4
  8.499497514560e-04    9  1  5  5
 -9.175814139487e-03    9  1  6  1
  9.449343600333e-03    9  1  6  2
  1.405095522882e-07    9  1  6  3
 -1.247044467263e-04    9  1  6  4
  3.675999212528e-06    9  1  6  5
  8.607138220871e-03    9  1  6  6
  9.527689327858e-03    9  1  7  1
 -2.001710921995e-03    9  1  7  2
  1.069780072240e-07    9  1  7  3
 -1.944636024010e-03    9  1  7  4
 -8.673081659127e-09    9  1  7  5
  7.555131598718e-03    9  1  7  6
 -2.234016550541e-03    9  1  7  7
  2.851144797711e-08    9  1  8  1
  7.286889159948e-08    9  1  8  2
 -4.367422746237e-04    9  1  8  3
 -9.193493267031e-08    9  1  8  4
  1.867820292871e-04    9  1  8  5
 -8.425137405654e-09    9  1  8  6
  1.149699185990e-08    9  1  8  7
  8.105035585066e-04    9  1  8  8
  1.310655114304e-02    9  1  9  1
  1.652045649887e-01    9  2  1  1
  3.989365618165e-03    9  2  2  1
  9.334600713219e-02    9  2  2  2
  2.611096599849e-07    9  2  3  1
  9.102851447964e-10    9  2  3  2
  1.792662543964e-01    9  2  3  3
 -1.233215120908e-02    9  2  4  1
 -1.910451775751e-02    9  2  4  2
  2.565489634447e-09    9  2  4  3
 -4.981837989993e-02    9  2  4  4
 -9.918250025747e-07    9  2  5  1
 -4.026287377830e-07    9  2  5  2
  9.240512344477e-06    9  2  5  3
 -9.363336272225e-06    9  2  5  4
  1.766730430665e-01    9  2  5  5
  1.937536384552e-02    9  2  6  1
  1.819806044406e-03    9  2  6  2
  3.898778318434e-07    9  2  6  3
 -2.615798934459e-02    9  2  6  4
 -7.051120323019e-07    9  2  6  5
  1.937271293256e-01    9  2  6  6
 -6.122618401818e-03    9  2  7  1
  1.190658313537e-01    9  2  7  2
 -4.352939678778e-10    9  2  7  3
  5.541818417918e-03    9  2  7  4
 -3.102974785953e-07    9  2  7  5
 -4.166625209797e-03    9  2  7  6
  3.410687805962e-02    9  2  7  7
  2.462361680942e-07    9  2  8  1
  7.060367958212e-11    9  2  8  2
 -3.448368055600e-02    9  2  8  3
 -2.425870407729e-09    9  2  8  4
  1.168428316363e-05    9  2  8  5
  2.972587858211e-07    9  2  8  6
 -2.802356320781e-10    9  2  8  7
 -6.559340541465e-02    9  2  8  8
 -7.262503643136e-04    9  2  9  1
  7.224560145364e-02    9  2  9  2
  1.293638910197e-07    9  3  1  1
  6.859270347657e-09    9  3  2  1
  1.759003600296e-09    9  3  2  2
 -3.249066573716e-03    9  3  3  1
  7.198059984642e-03    9  3  3  2
  2.727384408166e-09    9  3  3  3
 -2.288288125467e-07    9  3  4  1
  1.591419389181e-10    9  3  4  2
  9.480081232154e-04    9  3  4  3
 -1.614715443041e-09    9  3  4  4
  2.476839016399e-03    9  3  5  1
  7.277825370000e-07    9  3  5  2
 -4.401933301088e-08    9  3  5  3
  2.852668510773e-05    9  3  5  4
  5.440007215133e-08    9  3  5  5
  2.545706230232e-07    9  3  6  1
 -6.179698136721e-09    9  3  6  2
  4.841259957154e-04    9  3  6  3
 -1.073970174135e-07    9  3  6  4
 -1.440425136357e-03    9  3  6  5
  1.873389997705e-07    9  3  6  6
 -7.828897580065e-08    9  3  7  1
  1.270335160581e-09    9  3  7  2
  3.221966852375e-03    9  3  7  3
 -7.087133179181e-10    9  3  7  4
  1.666851917897e-06    9  3  7  5
 -1.003721790487e-07    9  3  7  6
  7.289759678320e-10    9  3  7  7
  4.564385798096e-04    9  3  8  1
 -1.223936877172e-03    9  3  8  2
 -5.325398020674e-10    9  3  8  3
  1.649473143455e-04    9  3  8  4
  1.908916614196e-08    9  3  8  5
 -6.236739989706e-05    9  3  8  6
 -1.851163353827e-04    9  3  8  7
 -9.761841761403e-11    9  3  8  8
  1.257995992487e-07    9  3  9  1
  9.371737680718e-10    9  3  9  2
  8.238786817186e-03    9  3  9  3
  9.844913083775e-03    9  4  1  1
 -4.943213448956e-03    9  4  2  1
  1.330940139251e-02    9  4  2  2
 -8.024737887027e-07    9  4  3  1
  5.004799218434e-10    9  4  3  2
  5.444010616316e-03    9  4  3  3
  3.494822511732e-04    9  4  4  1
 -1.991092827886e-02    9  4  4  2
  2.524039211271e-09    9  4  4  3
  1.195200060293e-02    9  4  4  4
  9.851037854348e-08    9  4  5  1
 -1.422148711817e-06    9  4  5  2
 -6.969344710874e-06    9  4  5  3
  7.778331457500e-07    9  4  5  4
 -1.435318530939e-03    9  4  5  5
 -7.842036594936e-04    9  4  6  1
 -7.446402920961e-03    9  4  6  2
 -1.302315893059e-06    9  4  6  3
  6.512291971345e-04    9  4  6  4
 -5.005667211477e-08    9  4  6  5
 -1.045584547879e-02    9  4  6  6
 -1.067264427209e-03    9  4  7  1
 -9.551648977079e-03    9  4  7  2
 -8.382360542822e-10    9  4  7  3
  3.542704527561e-02    9  4  7  4
  1.309851074767e-06    9  4  7  5
 -2.405271832346e-04    9  4  7  6
  2.078839992142e-02    9  4  7  7
  7.516845991009e-08    9  4  8  1
 -5.342318843742e-10    9  4  8  2
  3.467190276948e-03    9  4  8  3
  1.334508166191e-10    9  4  8  4
 -9.375393106391e-06    9  4  8  5
  1.371821211870e-07    9  4  8  6
 -2.523449305962e-10    9  4  8  7
  2.223093201841e-02    9  4  8  8
 -6.600475688777e-04    9  4  9  1
 -6.181950400815e-03    9  4  9  2
 -7.780129968589e-10    9  4  9  3
  1.735812354903e-02    9  4  9  4
  2.349352993474e-06    9  5  1  1
 -1.645957579351e-07    9  5  2  1
  1.151767712408e-06    9  5  2  2
 -2.745294557575e-03    9  5  3  1
 -3.702866588100e-06    9  5  3  2
  1.013680298524e-06    9  5  3  3
 -7.430903707291e-08    9  5  4  1
 -1.400846011351e-06    9  5  4  2
 -4.612058534793e-05    9  5  4  3
  1.227026966209e-06    9  5  4  4
  1.427685232588e-03    9  5  5  1
  1.245371959581e-02    9  5  5  2
 -4.203339852892e-09    9  5  5  3
 -3.643799197100e-03    9  5  5  4
  5.289344296223e-07    9  5  5  5
  1.785567304595e-06    9  5  6  1
 -1.829441198539e-07    9  5  6  2
  3.554325594208e-03    9  5  6  3
 -6.665846859819e-08    9  5  6  4
  1.081471228964e-03    9  5  6  5
  2.687799642529e-06    9  5  6  6
  1.164342880761e-08    9  5  7  1
 -3.458724283041e-07    9  5  7  2
 -2.368197253803e-06    9  5  7  3
  1.304426319489e-06    9  5  7  4
  4.109071189250e-03    9  5  7  5
  6.819679773895e-08    9  5  7  6
  1.265120664871e-06    9  5  7  7
  7.570090085285e-04    9  5  8  1
  2.245946978417e-06    9  5  8  2
  6.126527788973e-08    9  5  8  3
  2.987047386603e-06    9  5  8  4
  6.059806415494e-09    9  5  8  5
 -4.816949816808e-05    9  5  8  6
  4.236383323711e-06    9  5  8  7