#INFO: **** input file is /projects/bamu3429/BENCHMARK/fresh_atoms/MRPT/vdz/monoxides/CuO/mrpt.py ****
import json
from pyscf import gto,scf,mcscf, fci, lo, ci, cc
from pyscf.scf import ROHF, UHF,ROKS
import numpy as np
import pandas as pd

# THIS IS WERE IT STARTS ====================================

df=json.load(open("../../../trail.json"))

spins={'ScO':1, 'TiO':2, 'VO':3, 'CrO':4, 'MnO':5, 'FeO':4, 'CuO':1}

nd={'Sc':(1,0), 'Ti':(2,0), 'V':(3,0), 'Cr':(5,0), 'Mn':(5,0), 'Fe':(5,1), 'Cu':(5,4)}

cas={'Sc':3, 'Ti':4, 'V':5, 'Cr':6, 'Mn':7, 'Fe':8, 'Cu':11}

re={'ScO':1.668, 'TiO':1.623, 'VO':1.591, 'CrO':1.621, 'MnO':1.648, 'FeO':1.616, 'CuO':1.725}

datacsv={}
for nm in ['basis','charge','method','molecule','pseudopotential',
           'totalenergy','totalenergy-stocherr','totalenergy-syserr']:
  datacsv[nm]=[]

basis='vdz'
element='Cu'

mol=gto.Mole()
mol.ecp={}
mol.basis={}
for el in [element,'O']:
  mol.ecp[el]=gto.basis.parse_ecp(df[el]['ecp'])
  mol.basis[el]=gto.basis.parse(df[el][basis])
mol.charge=0
mol.spin=spins[element+'O']
mol.build(atom="%s 0. 0. 0.; O 0. 0. %g"%(element,re[element+'O']),verbose=4)

m=ROHF(mol)
m.level_shift=1000.0
dm=m.from_chk("../../../../HF/monoxides/"+element+basis+"0.chk")
hf=m.kernel(dm)
m.analyze()

from pyscf.shciscf import shci
mc = shci.SHCISCF(m, 9, 4+cas[element])
#mc.fcisolver.conv_tol = 1e-14
mc.fcisolver.mpiprefix="srun -n20"
mc.fcisolver.num_thrds=12
mc.verbose = 4
cas=mc.kernel()[0]
 
from pyscf.icmpspt import icmpspt
pt=icmpspt.icmpspt(mc,rdmM=500, PTM=1000,\
                          pttype="MRLCC",\
                          third_order=True,\
                          fully_ic=True,\
                          do_dm4=True)

datacsv['basis'].append(basis)
datacsv['charge'].append(0)
datacsv['method'].append('MRPT')
datacsv['molecule'].append(element)
datacsv['pseudopotential'].append('trail')
datacsv['totalenergy'].append(cas+pt)
datacsv['totalenergy-stocherr'].append(0.0)
datacsv['totalenergy-syserr'].append(0.0)
pd.DataFrame(datacsv).to_csv(element+".csv",index=False)

#INFO: ******************** input file end ********************


System: ('Linux', 'bnode0302.rc.int.colorado.edu', '3.10.0-514.41.1.el7.x86_64', '#1 SMP Wed Jan 17 10:26:16 EST 2018', 'x86_64', 'x86_64')  Threads 28
Python 2.7.11 (default, Mar 22 2016, 01:42:54) 
[GCC Intel(R) C++ gcc 4.8 mode]
numpy 1.11.1  scipy 0.17.1
Date: Wed Apr 18 14:01:03 2018
PySCF version 1.4.6
PySCF path  /projects/bamu3429/softwares/pyscf_uptodate/pyscf
GIT ORIG_HEAD f3591ef22170896a4cdc2aadaa6f5da388ffcadb
GIT HEAD      ref: refs/heads/master
GIT master branch  1847583fb1d2472321833d3c71c8b7008e5fabf5

[INPUT] VERBOSE 4
[INPUT] num atoms = 2
[INPUT] num electrons = 25
[INPUT] charge = 0
[INPUT] spin (= nelec alpha-beta = 2S) = 1
[INPUT] symmetry False subgroup None
[INPUT]  1 Cu     0.000000000000   0.000000000000   0.000000000000 AA    0.000000000000   0.000000000000   0.000000000000 Bohr
[INPUT]  2 O      0.000000000000   0.000000000000   1.725000000000 AA    0.000000000000   0.000000000000   3.259777564875 Bohr
[INPUT] ---------------- BASIS SET ---------------- 
[INPUT] l, kappa, [nprim/nctr], expnt,             c_1 c_2 ...
[INPUT] Cu
[INPUT] 0    0    [12   /1   ]  56.69692001       0.003858
                                20.1703448        -1.511163
                                16.89311889       5.262467
                                14.81117613       -4.140408
                                6.02025146        0.066973
                                2.45829434        0.59039
                                1.29773244        0.435
                                0.73258474        0.171005
                                0.2960966         0.014654
                                0.13350445        -0.001059
                                0.05975279        0.002343
                                0.0277617         7.2e-05
[INPUT] 0    0    [12   /1   ]  56.69692001       -0.000329
                                20.1703448        0.271255
                                16.89311889       -0.991333
                                14.81117613       0.80309
                                6.02025146        -0.009798
                                2.45829434        -0.162788
                                1.29773244        -0.157463
                                0.73258474        -0.146178
                                0.2960966         0.068557
                                0.13350445        0.45286
                                0.05975279        0.4989
                                0.0277617         0.13834
[INPUT] 0    0    [12   /1   ]  56.69692001       -0.002105
                                20.1703448        1.042902
                                16.89311889       -3.903361
                                14.81117613       3.253774
                                6.02025146        -0.265439
                                2.45829434        -0.912125
                                1.29773244        0.037508
                                0.73258474        0.288641
                                0.2960966         0.79856
                                0.13350445        0.406567
                                0.05975279        -0.520049
                                0.0277617         -0.530268
[INPUT] 0    0    [1    /1   ]  0.0277617            1
[INPUT] 0    0    [1    /1   ]  0.01289834           1
[INPUT] 1    0    [12   /1   ]  84.11621248       0.00021
                                41.67010486       -0.003354
                                20.84027636       0.054507
                                13.1175259        -0.185677
                                7.96834211        0.1136
                                4.08681185        0.286879
                                2.29416473        0.386568
                                1.21038981        0.304256
                                0.60503887        0.104511
                                0.23373223        0.008916
                                0.0905483         -0.000333
                                0.03498335        0.000208
[INPUT] 1    0    [12   /1   ]  84.11621248       4e-06
                                41.67010486       0.000359
                                20.84027636       -0.009409
                                13.1175259        0.03575
                                7.96834211        -0.025333
                                4.08681185        -0.064167
                                2.29416473        -0.086609
                                1.21038981        -0.086359
                                0.60503887        0.027529
                                0.23373223        0.324015
                                0.0905483         0.541358
                                0.03498335        0.260105
[INPUT] 1    0    [12   /1   ]  84.11621248       -0.000321
                                41.67010486       0.000199
                                20.84027636       0.04701
                                13.1175259        -0.273823
                                7.96834211        0.324037
                                4.08681185        0.758464
                                2.29416473        -0.019131
                                1.21038981        -0.776778
                                0.60503887        -0.428283
                                0.23373223        0.617543
                                0.0905483         0.395771
                                0.03498335        -0.001478
[INPUT] 1    0    [1    /1   ]  0.03498335           1
[INPUT] 1    0    [1    /1   ]  0.01351582           1
[INPUT] 2    0    [10   /1   ]  85.06963135       0.000306
                                37.22826442       -0.00619
                                15.61164981       0.135912
                                9.50636668        0.057336
                                5.30208049        0.240495
                                2.49612499        0.317037
                                1.13949453        0.29791
                                0.51100337        0.208077
                                0.230497          0.090388
                                0.11275594        0.026692
[INPUT] 2    0    [10   /1   ]  85.06963135       -7e-05
                                37.22826442       0.0059
                                15.61164981       -0.160721
                                9.50636668        -0.065337
                                5.30208049        -0.371031
                                2.49612499        -0.226835
                                1.13949453        0.189032
                                0.51100337        0.400876
                                0.230497          0.293272
                                0.11275594        0.143387
[INPUT] 2    0    [1    /1   ]  0.11275594           1
[INPUT] 2    0    [1    /1   ]  0.05515864           1
[INPUT] 3    0    [1    /1   ]  3.88318              1
[INPUT] 3    0    [1    /1   ]  1.89959783           1
[INPUT] O
[INPUT] 0    0    [10   /1   ]  57.663349         -0.002794
                                35.726816         0.023976
                                22.453757         -0.115974
                                14.732301         0.288033
                                9.739917          -0.274786
                                5.042008          -0.083789
                                2.157818          0.063778
                                1.002916          0.410182
                                0.421839          0.504044
                                0.173041          0.172152
[INPUT] 0    0    [1    /1   ]  0.222099             1
[INPUT] 0    0    [1    /1   ]  0.08884              1
[INPUT] 1    0    [10   /1   ]  52.47406          -0.000522
                                32.138432         0.004857
                                19.458579         -0.027749
                                11.839344         0.074258
                                7.91003           0.014369
                                3.670858          0.153479
                                1.53966           0.283685
                                0.647119          0.358201
                                0.267853          0.29559
                                0.107198          0.104889
[INPUT] 1    0    [1    /1   ]  0.252604             1
[INPUT] 1    0    [1    /1   ]  0.101042             1
[INPUT] 2    0    [1    /1   ]  1.223113             1
[INPUT] 2    0    [1    /1   ]  0.489245             1
nuclear repulsion = 34.9717113303652
number of shells = 24
number of NR pGTOs = 334
number of NR cGTOs = 76
basis = {'O': [[0, [57.663349, -0.002794], [35.726816, 0.023976], [22.453757, -0.115974], [14.732301, 0.288033], [9.739917, -0.274786], [5.042008, -0.083789], [2.157818, 0.063778], [1.002916, 0.410182], [0.421839, 0.504044], [0.173041, 0.172152]], [0, [0.222099, 1.0]], [0, [0.08884, 1.0]], [1, [52.47406, -0.000522], [32.138432, 0.004857], [19.458579, -0.027749], [11.839344, 0.074258], [7.91003, 0.014369], [3.670858, 0.153479], [1.53966, 0.283685], [0.647119, 0.358201], [0.267853, 0.29559], [0.107198, 0.104889]], [1, [0.252604, 1.0]], [1, [0.101042, 1.0]], [2, [1.223113, 1.0]], [2, [0.489245, 1.0]]], 'Cu': [[0, [56.69692001, 0.003858], [20.1703448, -1.511163], [16.89311889, 5.262467], [14.81117613, -4.140408], [6.02025146, 0.066973], [2.45829434, 0.59039], [1.29773244, 0.435], [0.73258474, 0.171005], [0.2960966, 0.014654], [0.13350445, -0.001059], [0.05975279, 0.002343], [0.0277617, 7.2e-05]], [0, [56.69692001, -0.000329], [20.1703448, 0.271255], [16.89311889, -0.991333], [14.81117613, 0.80309], [6.02025146, -0.009798], [2.45829434, -0.162788], [1.29773244, -0.157463], [0.73258474, -0.146178], [0.2960966, 0.068557], [0.13350445, 0.45286], [0.05975279, 0.4989], [0.0277617, 0.13834]], [0, [56.69692001, -0.002105], [20.1703448, 1.042902], [16.89311889, -3.903361], [14.81117613, 3.253774], [6.02025146, -0.265439], [2.45829434, -0.912125], [1.29773244, 0.037508], [0.73258474, 0.288641], [0.2960966, 0.79856], [0.13350445, 0.406567], [0.05975279, -0.520049], [0.0277617, -0.530268]], [0, [0.0277617, 1.0]], [0, [0.01289834, 1.0]], [1, [84.11621248, 0.00021], [41.67010486, -0.003354], [20.84027636, 0.054507], [13.1175259, -0.185677], [7.96834211, 0.1136], [4.08681185, 0.286879], [2.29416473, 0.386568], [1.21038981, 0.304256], [0.60503887, 0.104511], [0.23373223, 0.008916], [0.0905483, -0.000333], [0.03498335, 0.000208]], [1, [84.11621248, 4e-06], [41.67010486, 0.000359], [20.84027636, -0.009409], [13.1175259, 0.03575], [7.96834211, -0.025333], [4.08681185, -0.064167], [2.29416473, -0.086609], [1.21038981, -0.086359], [0.60503887, 0.027529], [0.23373223, 0.324015], [0.0905483, 0.541358], [0.03498335, 0.260105]], [1, [84.11621248, -0.000321], [41.67010486, 0.000199], [20.84027636, 0.04701], [13.1175259, -0.273823], [7.96834211, 0.324037], [4.08681185, 0.758464], [2.29416473, -0.019131], [1.21038981, -0.776778], [0.60503887, -0.428283], [0.23373223, 0.617543], [0.0905483, 0.395771], [0.03498335, -0.001478]], [1, [0.03498335, 1.0]], [1, [0.01351582, 1.0]], [2, [85.06963135, 0.000306], [37.22826442, -0.00619], [15.61164981, 0.135912], [9.50636668, 0.057336], [5.30208049, 0.240495], [2.49612499, 0.317037], [1.13949453, 0.29791], [0.51100337, 0.208077], [0.230497, 0.090388], [0.11275594, 0.026692]], [2, [85.06963135, -7e-05], [37.22826442, 0.0059], [15.61164981, -0.160721], [9.50636668, -0.065337], [5.30208049, -0.371031], [2.49612499, -0.226835], [1.13949453, 0.189032], [0.51100337, 0.400876], [0.230497, 0.293272], [0.11275594, 0.143387]], [2, [0.11275594, 1.0]], [2, [0.05515864, 1.0]], [3, [3.88318, 1.0]], [3, [1.89959783, 1.0]]]}
ecp = {'O': [2, [[-1, [[], [[10.27717748, 6.0]], [[15.99566749, 1232.50197768], [10.46901775, -696.47008301], [14.6384801, -2654.22657081], [12.57591181, 2101.67732548]], [[7.77739102, 61.66306486]]]], [0, [[], [], [[12.39426073, -656683.37638839], [12.38126171, 657858.57667068], [8.57671033, 511.50098405], [9.89256508, -2579.54665641], [28.05641604, -57.68129584], [17.24753607, 970.30940152]], []]], [1, [[], [], [[14.78918914, -363027.24258186], [14.82014018, 361852.52314043], [22.89622221, -1300.20069256], [8.51331893, -181.96869573], [11.48609758, 2194.87589959], [27.22017524, 451.19906206]], []]]]], 'Cu': [10, [[-1, [[], [[19.87662576, 19.0]], [[18.71397328, 13322.8315411], [8.24597653, -143.81933419], [17.99726398, -6835.89401414], [19.50653533, -6413.73731394]], [[9.35936389, 377.6558895]]]], [0, [[], [], [[12.04327682, 217421.85846016], [11.98352277, -215987.47192743], [9.67744501, 1647.53099822], [17.5806873, -5124.79596488], [17.5092588, -963.5691239], [19.80724162, 3071.81011765]], []]], [1, [[], [], [[15.48559732, 189560.54470794], [15.42430413, -181115.65838446], [17.81980355, -1937.67548293], [17.69074392, -2335.92086442], [17.98867265, -8634.52846732], [19.82460345, 4504.58524733]], []]], [2, [[], [], [[10.91448054, -5224.34215851], [14.69969344, -3653.65459704], [11.52370333, 8159.25189768], [19.81153965, -2763.94279097], [18.0197982, 6020.80732635], [14.46480052, -2560.14492979]], []]]]]}
CPU time:         3.70


******** <class 'pyscf.scf.rohf.ROHF'> flags ********
method = ROHF
initial guess = minao
damping factor = 0
level shift factor = 1000.0
DIIS = <class 'pyscf.scf.diis.CDIIS'>
DIIS start cycle = 1
DIIS space = 8
SCF tol = 1e-09
SCF gradient tol = None
max. SCF cycles = 50
direct_scf = True
direct_scf_tol = 1e-13
chkfile to save SCF result = /rc_scratch/bamu3429/tmpxZ_hQ9
max_memory 4000 MB (current use 157 MB)
num. doubly occ = 12  num. singly occ = 1
Set gradient conv threshold to 3.16228e-05
init E= -212.238829673235
  HOMO = 499.859056184152  LUMO = 999.986736328788
cycle= 1 E= -212.238829673235  delta_E= -2.84e-14  |g|= 1.01e-05  |ddm|= 6.91e-08
  HOMO = -0.14094381615083  LUMO = -0.0132636711968444
Extra cycle  E= -212.238829673261  delta_E= -2.55e-11  |g|= 2.81e-06  |ddm|= 1.84e-05
converged SCF energy = -212.238829673261
**** MO energy ****
                Roothaan           | alpha              | beta
MO #1   energy= -5.26937090580898  | -5.27052473442033  | -5.26821707719765  occ= 2
MO #2   energy= -3.53880589672987  | -3.54063967950298  | -3.53697211395676  occ= 2
MO #3   energy= -3.53461349128896  | -3.53663640587463  | -3.53259057683279  occ= 2
MO #4   energy= -3.53345095739768  | -3.53373311620066  | -3.5331687985947   occ= 2
MO #5   energy= -1.15156189975188  | -1.22658359993457  | -1.07654019956918  occ= 2
MO #6   energy= -0.540514832605966 | -0.543541175833939 | -0.537488489377997 occ= 2
MO #7   energy= -0.531311919169259 | -0.539874573864244 | -0.522749264474272 occ= 2
MO #8   energy= -0.523939135211752 | -0.533709669025268 | -0.514168650732651 occ= 2
MO #9   energy= -0.516132696716555 | -0.51666752050399  | -0.515597872929122 occ= 2
MO #10  energy= -0.516130968079009 | -0.516653696197302 | -0.515608239960717 occ= 2
MO #11  energy= -0.399016921950191 | -0.414232820986248 | -0.383801022914137 occ= 2
MO #12  energy= -0.390695644552207 | -0.400794376074739 | -0.380596913029672 occ= 2
MO #13  energy= -0.14094381615083  | -0.517249706117139 | 0.23536229557544   occ= 1
MO #14  energy= -0.0132636711968444 | -0.0138545334619437 | -0.0126728089317457 occ= 0
MO #15  energy= 0.0256385488189199 | 0.0251496304233581 | 0.0261273842817808 occ= 0
MO #16  energy= 0.0265414933970979 | 0.0264688916804238 | 0.0266140951137721 occ= 0
MO #17  energy= 0.0348178270344312 | 0.0343888419382412 | 0.0352468121306183 occ= 0
MO #18  energy= 0.0406516574351526 | 0.0405599395154237 | 0.0407433753548792 occ= 0
MO #19  energy= 0.090309576342844  | 0.0883144403158817 | 0.0923046716201362 occ= 0
MO #20  energy= 0.0917673676050111 | 0.0914876167911771 | 0.0920471184188229 occ= 0
MO #21  energy= 0.122962817011866  | 0.122127950699624  | 0.123797683324106  occ= 0
MO #22  energy= 0.158216234406002  | 0.157968171952309  | 0.158464296859693  occ= 0
MO #23  energy= 0.158292871444695  | 0.158053897054112  | 0.158531845835282  occ= 0
MO #24  energy= 0.170096563750081  | 0.16734177032026   | 0.172851312040791  occ= 0
MO #25  energy= 0.172989780979106  | 0.172613680304212  | 0.173365881653999  occ= 0
MO #26  energy= 0.18130168658462   | 0.180641168429801  | 0.181962204739444  occ= 0
MO #27  energy= 0.221814297075984  | 0.22090880681752   | 0.222719787334449  occ= 0
MO #28  energy= 0.336707072029701  | 0.331337192503553  | 0.342076828155789  occ= 0
MO #29  energy= 0.338483045711748  | 0.337806745247473  | 0.339159346176017  occ= 0
MO #30  energy= 0.369522556832662  | 0.366896731165149  | 0.37214838250018   occ= 0
MO #31  energy= 0.443594463170513  | 0.436484550312268  | 0.450704453425288  occ= 0
MO #32  energy= 0.448906916078197  | 0.447983798296681  | 0.449830033859709  occ= 0
MO #33  energy= 0.473315389013268  | 0.471067741919908  | 0.475563036106632  occ= 0
MO #34  energy= 0.496905867191068  | 0.495974078662653  | 0.497837655719477  occ= 0
MO #35  energy= 0.497042212511922  | 0.496107873831284  | 0.49797655119256   occ= 0
MO #36  energy= 0.533697351527757  | 0.522697314240721  | 0.544697372114352  occ= 0
MO #37  energy= 0.537444005669732  | 0.536014518589569  | 0.538873492749892  occ= 0
MO #38  energy= 0.569499654927238  | 0.564669054461457  | 0.574330255393026  occ= 0
MO #39  energy= 1.14805102734219   | 1.13994088858438   | 1.1561611661       occ= 0
MO #40  energy= 1.44169656041432   | 1.41308019441057   | 1.47031292641807   occ= 0
MO #41  energy= 1.44189431125792   | 1.41377148001649   | 1.47001714249934   occ= 0
MO #42  energy= 1.54131564862415   | 1.51445921178437   | 1.56817208171806   occ= 0
MO #43  energy= 1.54195898925686   | 1.53381388856031   | 1.55010408995342   occ= 0
MO #44  energy= 1.55270683390054   | 1.54876424502258   | 1.5566494227785    occ= 0
MO #45  energy= 1.57016656656783   | 1.50931172477928   | 1.63102146988474   occ= 0
MO #46  energy= 1.57345342567377   | 1.56619246276744   | 1.5807143885801    occ= 0
MO #47  energy= 2.10971151155058   | 2.09968243539843   | 2.11974058770272   occ= 0
MO #48  energy= 2.48806650972677   | 2.4807079576205    | 2.49542506183301   occ= 0
MO #49  energy= 2.61723316937836   | 2.61391416306229   | 2.6205521756944    occ= 0
MO #50  energy= 2.7909848966915    | 2.79057950417835   | 2.79139028920466   occ= 0
MO #51  energy= 2.79099583181576   | 2.79058987846635   | 2.79140178516517   occ= 0
MO #52  energy= 2.91286371590272   | 2.90813407334033   | 2.91759335823948   occ= 0
MO #53  energy= 2.91523450185603   | 2.91458203152476   | 2.91588697218731   occ= 0
MO #54  energy= 3.94096166741655   | 3.92844597080253   | 3.95347736403056   occ= 0
MO #55  energy= 4.20645560765011   | 4.16653662887751   | 4.24637458642271   occ= 0
MO #56  energy= 4.20693271728757   | 4.16834324178617   | 4.24552219278898   occ= 0
MO #57  energy= 4.32106933537374   | 4.28359782420879   | 4.35854084740189   occ= 0
MO #58  energy= 4.34428322591586   | 4.33828475671117   | 4.35028169512054   occ= 0
MO #59  energy= 4.85593067346398   | 4.85488442576169   | 4.85697692131242   occ= 0
MO #60  energy= 4.85874284128935   | 4.85856102211401   | 4.85892466046469   occ= 0
MO #61  energy= 5.10582662768807   | 5.10002387449956   | 5.11162938087654   occ= 0
MO #62  energy= 5.46975901590052   | 5.46959801184596   | 5.46992001995517   occ= 0
MO #63  energy= 5.46975911357851   | 5.46959814226973   | 5.46992008488731   occ= 0
MO #64  energy= 5.47191400615284   | 5.47109711916423   | 5.47273089314144   occ= 0
MO #65  energy= 5.47196147895026   | 5.47114061029204   | 5.47278234760847   occ= 0
MO #66  energy= 5.4837004043842    | 5.48226437186827   | 5.48513643690013   occ= 0
MO #67  energy= 5.55723335616431   | 5.55553711422227   | 5.55892959874145   occ= 0
MO #68  energy= 5.56031799676593   | 5.56005870418937   | 5.56057728934252   occ= 0
MO #69  energy= 6.13573421595866   | 6.13411417456049   | 6.13735425735678   occ= 0
MO #70  energy= 14.1559806794356   | 14.1557239817675   | 14.1562373771036   occ= 0
MO #71  energy= 14.1559808506518   | 14.1557242331519   | 14.1562374681518   occ= 0
MO #72  energy= 14.1584176038803   | 14.1574455897926   | 14.159389617968    occ= 0
MO #73  energy= 14.1584241263653   | 14.1574589794717   | 14.1593892732589   occ= 0
MO #74  energy= 14.2063878780697   | 14.2050418576589   | 14.2077338985087   occ= 0
MO #75  energy= 14.2081229467526   | 14.2079403458196   | 14.2083055476855   occ= 0
MO #76  energy= 14.3052603053812   | 14.3046868671287   | 14.3058337436337   occ= 0
 ** Mulliken pop on meta-lowdin orthogonal AOs  **
 ** Mulliken pop  **
pop of  0Cu 3s        1.99998
pop of  0Cu 4s        0.33972
pop of  0Cu 5s        0.00358
pop of  0Cu 6s        0.00225
pop of  0Cu 7s        0.00085
pop of  0Cu 3px       1.99996
pop of  0Cu 3py       1.99995
pop of  0Cu 3pz       1.99988
pop of  0Cu 4px       0.01838
pop of  0Cu 4py       0.00358
pop of  0Cu 4pz       0.00860
pop of  0Cu 5px       0.00163
pop of  0Cu 5py       0.00025
pop of  0Cu 5pz       0.00024
pop of  0Cu 6px       0.00217
pop of  0Cu 6py       0.00014
pop of  0Cu 6pz       0.00028
pop of  0Cu 7px       0.00032
pop of  0Cu 7py       0.00002
pop of  0Cu 7pz       0.00008
pop of  0Cu 3dxy      1.99874
pop of  0Cu 3dyz      1.98505
pop of  0Cu 3dz^2     1.88945
pop of  0Cu 3dxz      1.99176
pop of  0Cu 3dx2-y2    1.99873
pop of  0Cu 4dxy      0.00058
pop of  0Cu 4dyz      0.00077
pop of  0Cu 4dz^2     0.00177
pop of  0Cu 4dxz      0.00074
pop of  0Cu 4dx2-y2    0.00058
pop of  0Cu 5dxy      0.00060
pop of  0Cu 5dyz      0.00059
pop of  0Cu 5dz^2     0.00252
pop of  0Cu 5dxz      0.00080
pop of  0Cu 5dx2-y2    0.00061
pop of  0Cu 6dxy      0.00004
pop of  0Cu 6dyz      0.00001
pop of  0Cu 6dz^2     0.00084
pop of  0Cu 6dxz      0.00039
pop of  0Cu 6dx2-y2    0.00004
pop of  0Cu 4fy^3     0.00000
pop of  0Cu 4fxyz     0.00001
pop of  0Cu 4fyz^2    0.00001
pop of  0Cu 4fz^3     0.00002
pop of  0Cu 4fxz^2    0.00001
pop of  0Cu 4fzx^2    0.00001
pop of  0Cu 4fx^3     0.00000
pop of  0Cu 5fy^3     0.00000
pop of  0Cu 5fxyz     0.00002
pop of  0Cu 5fyz^2    0.00004
pop of  0Cu 5fz^3     0.00004
pop of  0Cu 5fxz^2    0.00006
pop of  0Cu 5fzx^2    0.00002
pop of  0Cu 5fx^3     0.00000
pop of  1O 2s        1.92322
pop of  1O 3s        0.00083
pop of  1O 4s        0.00098
pop of  1O 2px       1.97012
pop of  1O 2py       1.00918
pop of  1O 2pz       1.81271
pop of  1O 3px       0.00338
pop of  1O 3py       0.00031
pop of  1O 3pz       0.00490
pop of  1O 4px       0.00671
pop of  1O 4py       0.00044
pop of  1O 4pz       0.00301
pop of  1O 3dxy      0.00001
pop of  1O 3dyz      0.00023
pop of  1O 3dz^2     0.00075
pop of  1O 3dxz      0.00035
pop of  1O 3dx2-y2    0.00001
pop of  1O 4dxy      0.00001
pop of  1O 4dyz      0.00088
pop of  1O 4dz^2     0.00348
pop of  1O 4dxz      0.00177
pop of  1O 4dx2-y2    0.00003
 ** Mulliken atomic charges  **
charge of  0Cu =      0.74330
charge of  1O =     -0.74330

******** <class 'pyscf.mcscf.mc1step.CASSCF'> flags ********
CAS (8e+7e, 9o), ncore = 5, nvir = 62
max_cycle_macro = 50
max_cycle_micro = 4
conv_tol = 1e-07
conv_tol_grad = None
orbital rotation max_stepsize = 0.02
augmented hessian ah_max_cycle = 30
augmented hessian ah_conv_tol = 1e-12
augmented hessian ah_linear dependence = 1e-14
augmented hessian ah_level shift = 0
augmented hessian ah_start_tol = 2.5
augmented hessian ah_start_cycle = 3
augmented hessian ah_grad_trust_region = 3
kf_trust_region = 3
kf_interval = 4
ci_response_space = 4
ci_grad_trust_region = 3
with_dep4 0
natorb = False
canonicalization = True
sorting_mo_energy = False
chkfile = ./scratch/70160/tmp1thqNf
max_memory 4000 MB (current use 207 MB)
internal_rotation = False

******** SHCI flags ********
executable             = /home/bamu3429/softwares/dice/Dice
mpiprefix              = srun -n20
scratchDirectory       = ./scratch/70160
integralFile           = ./FCIDUMP
configFile             = ./input.dat
outputFile             = ./output.dat
maxIter                = 6
sweep_iter             = []
sweep_epsilon          = []
nPTiter                = 0
Stochastic             = True
fullrestart            = False
restart                = False
num_thrds              = 12
memory                 = None

CASCI E = -212.239537458693  S^2 = 0.7500000
Set conv_tol_grad to 0.000316228
macro iter 1 (21 JK  4 micro), CASSCF E = -212.249809987184  dE = -0.010272528  S^2 = 0.7500000
               |grad[o]|=0.00804  |grad[c]|= None  |ddm|=0.0868
macro iter 2 (21 JK  4 micro), CASSCF E = -212.259425446266  dE = -0.0096154591  S^2 = 0.7500000
               |grad[o]|=0.0729  |grad[c]|= None  |ddm|=0.056
macro iter 3 (20 JK  4 micro), CASSCF E = -212.261486331739  dE = -0.0020608855  S^2 = 0.7500000
               |grad[o]|=0.0666  |grad[c]|= None  |ddm|=0.0703
macro iter 4 (21 JK  4 micro), CASSCF E = -212.262391071351  dE = -0.00090473961  S^2 = 0.7500000
               |grad[o]|=0.0443  |grad[c]|= None  |ddm|= 0.04
macro iter 5 (21 JK  4 micro), CASSCF E = -212.263057486612  dE = -0.00066641526  S^2 = 0.7500000
               |grad[o]|=0.0467  |grad[c]|= None  |ddm|=0.0275
macro iter 6 (21 JK  4 micro), CASSCF E = -212.263676349919  dE = -0.00061886331  S^2 = 0.7500000
               |grad[o]|=0.0476  |grad[c]|= None  |ddm|=0.0257
macro iter 7 (21 JK  4 micro), CASSCF E = -212.264283741831  dE = -0.00060739191  S^2 = 0.7500000
               |grad[o]|=0.0476  |grad[c]|= None  |ddm|=0.0284
macro iter 8 (21 JK  4 micro), CASSCF E = -212.264754163925  dE = -0.00047042209  S^2 = 0.7500000
               |grad[o]|=0.0468  |grad[c]|= None  |ddm|=0.0232
macro iter 9 (21 JK  4 micro), CASSCF E = -212.265184101166  dE = -0.00042993724  S^2 = 0.7500000
               |grad[o]|=0.0446  |grad[c]|= None  |ddm|=0.0243
macro iter 10 (21 JK  4 micro), CASSCF E = -212.265540434948  dE = -0.00035633378  S^2 = 0.7500000
               |grad[o]|=0.0424  |grad[c]|= None  |ddm|=0.0207
macro iter 11 (21 JK  4 micro), CASSCF E = -212.265830759706  dE = -0.00029032476  S^2 = 0.7500000
               |grad[o]|=0.0395  |grad[c]|= None  |ddm|=0.0206
macro iter 12 (21 JK  4 micro), CASSCF E = -212.266119648793  dE = -0.00028888909  S^2 = 0.7500000
               |grad[o]|=0.0379  |grad[c]|= None  |ddm|=0.0194
macro iter 13 (21 JK  4 micro), CASSCF E = -212.266337506356  dE = -0.00021785756  S^2 = 0.7500000
               |grad[o]|=0.0338  |grad[c]|= None  |ddm|=0.0157
macro iter 14 (21 JK  4 micro), CASSCF E = -212.266537757879  dE = -0.00020025152  S^2 = 0.7500000
               |grad[o]|=0.0322  |grad[c]|= None  |ddm|=0.0146
macro iter 15 (21 JK  4 micro), CASSCF E = -212.266689762005  dE = -0.00015200413  S^2 = 0.7500000
               |grad[o]|=0.0304  |grad[c]|= None  |ddm|=0.0136
macro iter 16 (21 JK  4 micro), CASSCF E = -212.266811401911  dE = -0.00012163991  S^2 = 0.7500000
               |grad[o]|=0.0288  |grad[c]|= None  |ddm|=0.0141
macro iter 17 (21 JK  4 micro), CASSCF E = -212.266950747444  dE = -0.00013934553  S^2 = 0.7500000
               |grad[o]|=0.0265  |grad[c]|= None  |ddm|=0.0134
macro iter 18 (21 JK  4 micro), CASSCF E = -212.267056267831  dE = -0.00010552039  S^2 = 0.7500000
               |grad[o]|=0.0237  |grad[c]|= None  |ddm|=0.0087
macro iter 19 (21 JK  4 micro), CASSCF E = -212.267104396081  dE = -4.812825e-05  S^2 = 0.7500000
               |grad[o]|=0.0224  |grad[c]|= None  |ddm|=0.00987
macro iter 20 (17 JK  4 micro), CASSCF E = -212.267131605524  dE = -2.7209443e-05  S^2 = 0.7500000
               |grad[o]|=0.0213  |grad[c]|= None  |ddm|=0.0103
macro iter 21 (17 JK  4 micro), CASSCF E = -212.267178617405  dE = -4.7011881e-05  S^2 = 0.7500000
               |grad[o]|=0.0204  |grad[c]|= None  |ddm|=0.0107
macro iter 22 (17 JK  4 micro), CASSCF E = -212.267235059476  dE = -5.6442071e-05  S^2 = 0.7500000
               |grad[o]|=0.0193  |grad[c]|= None  |ddm|=0.00987
macro iter 23 (21 JK  4 micro), CASSCF E = -212.267315076928  dE = -8.0017452e-05  S^2 = 0.7500000
               |grad[o]|=0.0185  |grad[c]|= None  |ddm|=0.00947
macro iter 24 (21 JK  4 micro), CASSCF E = -212.267431645062  dE = -0.00011656813  S^2 = 0.7500000
               |grad[o]|=0.0177  |grad[c]|= None  |ddm|=0.0107
macro iter 25 (21 JK  4 micro), CASSCF E = -212.267536785239  dE = -0.00010514018  S^2 = 0.7500000
               |grad[o]|=0.0184  |grad[c]|= None  |ddm|=0.00867
macro iter 26 (21 JK  4 micro), CASSCF E = -212.26760804077  dE = -7.125553e-05  S^2 = 0.7500000
               |grad[o]|=0.0154  |grad[c]|= None  |ddm|=0.00769
macro iter 27 (21 JK  4 micro), CASSCF E = -212.267684010797  dE = -7.5970028e-05  S^2 = 0.7500000
               |grad[o]|=0.0142  |grad[c]|= None  |ddm|=0.00733
macro iter 28 (21 JK  4 micro), CASSCF E = -212.267708774131  dE = -2.4763334e-05  S^2 = 0.7500000
               |grad[o]|=0.0127  |grad[c]|= None  |ddm|=0.00528
macro iter 29 (17 JK  4 micro), CASSCF E = -212.267765949133  dE = -5.7175001e-05  S^2 = 0.7500000
               |grad[o]|=0.012  |grad[c]|= None  |ddm|=0.00675
macro iter 30 (7 JK  2 micro), CASSCF E = -212.267802689646  dE = -3.6740513e-05  S^2 = 0.7500000
               |grad[o]|=0.0118  |grad[c]|= None  |ddm|=0.00313
macro iter 31 (7 JK  2 micro), CASSCF E = -212.267853350417  dE = -5.0660772e-05  S^2 = 0.7500000
               |grad[o]|=0.0116  |grad[c]|= None  |ddm|=0.00345
macro iter 32 (7 JK  2 micro), CASSCF E = -212.267918515269  dE = -6.5164851e-05  S^2 = 0.7500000
               |grad[o]|=0.0116  |grad[c]|= None  |ddm|=0.00376
macro iter 33 (7 JK  2 micro), CASSCF E = -212.26800247641  dE = -8.3961141e-05  S^2 = 0.7500000
               |grad[o]|=0.0116  |grad[c]|= None  |ddm|=0.00415
macro iter 34 (7 JK  2 micro), CASSCF E = -212.268100603756  dE = -9.8127346e-05  S^2 = 0.7500000
               |grad[o]|=0.0118  |grad[c]|= None  |ddm|=0.00471
macro iter 35 (7 JK  2 micro), CASSCF E = -212.268202494919  dE = -0.00010189116  S^2 = 0.7500000
               |grad[o]|=0.0118  |grad[c]|= None  |ddm|=0.00532
macro iter 36 (7 JK  2 micro), CASSCF E = -212.268294524863  dE = -9.2029943e-05  S^2 = 0.7500000
               |grad[o]|=0.0119  |grad[c]|= None  |ddm|=0.0055
macro iter 37 (7 JK  2 micro), CASSCF E = -212.26836900758  dE = -7.4482717e-05  S^2 = 0.7500000
               |grad[o]|=0.0119  |grad[c]|= None  |ddm|=0.00592
macro iter 38 (7 JK  2 micro), CASSCF E = -212.268424808846  dE = -5.5801266e-05  S^2 = 0.7500000
               |grad[o]|=0.0117  |grad[c]|= None  |ddm|=0.00699
macro iter 39 (16 JK  4 micro), CASSCF E = -212.268477894597  dE = -5.3085751e-05  S^2 = 0.7500000
               |grad[o]|=0.0114  |grad[c]|= None  |ddm|=0.0118
macro iter 40 (17 JK  4 micro), CASSCF E = -212.268465745078  dE = 1.2149519e-05  S^2 = 0.7500000
               |grad[o]|=0.0112  |grad[c]|= None  |ddm|=0.00633
macro iter 41 (21 JK  4 micro), CASSCF E = -212.268444092781  dE = 2.1652297e-05  S^2 = 0.7500000
               |grad[o]|=0.00914  |grad[c]|= None  |ddm|=0.00286
macro iter 42 (21 JK  4 micro), CASSCF E = -212.268451951141  dE = -7.8583608e-06  S^2 = 0.7500000
               |grad[o]|=0.00869  |grad[c]|= None  |ddm|=0.00154
macro iter 43 (7 JK  2 micro), CASSCF E = -212.268463206446  dE = -1.1255305e-05  S^2 = 0.7500000
               |grad[o]|=0.00837  |grad[c]|= None  |ddm|=0.000899
macro iter 44 (7 JK  2 micro), CASSCF E = -212.268478061023  dE = -1.4854577e-05  S^2 = 0.7500000
               |grad[o]|=0.00816  |grad[c]|= None  |ddm|=0.00111
macro iter 45 (7 JK  2 micro), CASSCF E = -212.268491424974  dE = -1.336395e-05  S^2 = 0.7500000
               |grad[o]|=0.00798  |grad[c]|= None  |ddm|=0.00103
macro iter 46 (7 JK  2 micro), CASSCF E = -212.268503472944  dE = -1.204797e-05  S^2 = 0.7500000
               |grad[o]|=0.00783  |grad[c]|= None  |ddm|=0.00177
macro iter 47 (7 JK  2 micro), CASSCF E = -212.268514599  dE = -1.1126056e-05  S^2 = 0.7500000
               |grad[o]|=0.00771  |grad[c]|= None  |ddm|=0.00188
macro iter 48 (7 JK  2 micro), CASSCF E = -212.268526295679  dE = -1.1696679e-05  S^2 = 0.7500000
               |grad[o]|=0.0076  |grad[c]|= None  |ddm|=0.00192
macro iter 49 (7 JK  2 micro), CASSCF E = -212.268538452879  dE = -1.21572e-05  S^2 = 0.7500000
               |grad[o]|=0.00749  |grad[c]|= None  |ddm|=0.00207
macro iter 50 (7 JK  2 micro), CASSCF E = -212.268550660791  dE = -1.2207912e-05  S^2 = 0.7500000
               |grad[o]|=0.00739  |grad[c]|= None  |ddm|=0.00202
1-step CASSCF not converged, 50 macro (786 JK 166 micro) steps
CASSCF canonicalization
CASSCF energy = -212.268550660791


--------------------------------------------------
                 ICMPSPT CALCULATION              
--------------------------------------------------

Perturbation type: MRLCC
With fully internally contracted scheme
With third order correction

Preparing necessary RDMs
......production of RDMs took      82.31 sec
Reading binary 4RDM from DICE
......reading the RDM took         38.70 sec

(GOOD) Trace 4RDM:  32760.0 =   15*   14*   13*   12
(GOOD) Trace 3RDM:   2730.0 =   15*   14*   13
(GOOD) Trace 2RDM:    210.0 =   15*   14
(GOOD) Trace 1RDM:     15.0 =   15

Producing the integrals
......production of INT took      42.88 sec

Energy_core = -167.31209966
Energy      = -212.26855066

WARNING: Have to use natural orbitals from CAASCF
         offdiagonal elements:    1.57277240

Basic ingredients written to int/
......savings of INGREDIENTS took      47.38 sec

Second-order:
perturber CCVV --        -0.107624299
perturber CCAV --        -0.009486879
perturber ACVV --        -0.335543254
perturber CCAA --        -0.000252451
perturber AAVV --        -0.313783556
perturber CAAV --        -0.062199202
perturber AAAV --        -0.091833978
perturber AAAC --        -0.000162884
Total:                   -0.920886503

Third-order:             -0.002011879

Total PT       --        -0.922898382

