 &FCI NORB=6 ,NELEC=8 ,MS2=4,
  ORBSYM=1,1,1,1,1,1,
  ISYM=1,
 &END
  8.876819444647e-01    1  1  1  1
  7.750655465566e-03    2  1  2  1
  3.597167304203e-01    2  2  1  1
  2.810676437397e-01    2  2  2  2
 -1.458548785681e-03    3  1  2  1
  4.008042175914e-02    3  1  3  1
  1.532422357643e-03    3  2  1  1
  1.079657675215e-03    3  2  2  2
  6.954673631764e-03    3  2  3  2
  8.283458752023e-01    3  3  1  1
  3.621944373427e-01    3  3  2  2
  4.217188389584e-03    3  3  3  2
  9.348155605479e-01    3  3  3  3
  3.517873209937e-02    4  1  4  1
  1.008749158931e-03    4  2  4  1
  6.928459171878e-03    4  2  4  2
  9.444084069289e-03    4  3  4  1
  5.189281291903e-04    4  3  4  2
  2.585453987780e-02    4  3  4  3
  8.382007935454e-01    4  4  1  1
  1.084528036444e-03    4  4  2  1
  3.619575078537e-01    4  4  2  2
 -1.824133013517e-02    4  4  3  1
  3.622763355642e-03    4  4  3  2
  8.816582885567e-01    4  4  3  3
  9.312485190644e-01    4  4  4  4
  9.138341765047e-07    5  1  4  2
  8.555473590283e-06    5  1  4  3
  3.517873209935e-02    5  1  5  1
  9.138341765280e-07    5  2  4  1
 -1.008749158931e-03    5  2  5  1
  6.928459171878e-03    5  2  5  2
  8.555473590724e-06    5  3  4  1
 -9.444084069305e-03    5  3  5  1
  5.189281291919e-04    5  3  5  2
  2.585453987783e-02    5  3  5  3
  9.824828861973e-07    5  4  2  1
 -1.652497130290e-05    5  4  3  1
 -3.128867075010e-07    5  4  4  4
  3.657184698407e-02    5  4  5  4
  8.382007935455e-01    5  5  1  1
 -1.084528036453e-03    5  5  2  1
  3.619575078537e-01    5  5  2  2
  1.824133013521e-02    5  5  3  1
  3.622763355642e-03    5  5  3  2
  8.816582885566e-01    5  5  3  3
  8.587955936224e-01    5  5  4  4
  3.128867069038e-07    5  5  5  4
  9.312485190644e-01    5  5  5  5
  1.930485046007e-02    6  1  6  1
 -5.972568049291e-07    6  2  4  4
  6.592906184933e-04    6  2  5  4
  5.972568045677e-07    6  2  5  5
  6.881897449974e-03    6  2  6  2
  1.694252188369e-05    6  3  4  4
 -1.870224942266e-02    6  3  5  4
 -1.694252188430e-05    6  3  5  5
 -7.263994018580e-04    6  3  6  2
  4.151933919199e-02    6  3  6  3
 -7.577995071836e-07    6  4  4  2
 -8.664307851934e-06    6  4  4  3
 -1.606304119887e-02    6  4  5  1
  8.365080176960e-04    6  4  5  2
  9.564222353290e-03    6  4  5  3
  3.635796776152e-02    6  4  6  4
  1.606304119888e-02    6  5  4  1
  8.365080176954e-04    6  5  4  2
  9.564222353267e-03    6  5  4  3
  7.577995071697e-07    6  5  5  2
  8.664307852218e-06    6  5  5  3
  3.635796776152e-02    6  5  6  5
  8.666742863180e-01    6  6  1  1
  3.611964249419e-01    6  6  2  2
  2.056926464839e-03    6  6  3  2
  8.448467905057e-01    6  6  3  3
  8.548812305246e-01    6  6  4  4
  8.548812305246e-01    6  6  5  5
  9.236278066739e-01    6  6  6  6
 -5.449897362052e+00    1  1  0  0
 -2.688181890951e+00    2  2  0  0
 -1.912228528706e-02    3  2  0  0
 -5.552501003064e+00    3  3  0  0
 -5.547331060883e+00    4  4  0  0
 -5.547331060883e+00    5  5  0  0
 -5.530913966791e+00    6  6  0  0
   -101.634796544518   0  0  0  0
