#INFO: **** input file is /projects/bamu3429/BENCHMARK/fresh_atoms/MRPT/vqz/atoms/Fe_0/mrpt.py ****
import json
from pyscf import gto,scf,mcscf, fci, lo, ci, cc
from pyscf.scf import ROHF, UHF,ROKS
import numpy as np
import pandas as pd

# THIS IS WERE IT STARTS ====================================

df=json.load(open("../../../trail.json"))

spins={'Sc':1, 'Ti':2, 'V':3, 'Cr':6, 'Mn':5, 'Fe':4, 'Cu':1}

nd={'Sc':(1,0), 'Ti':(2,0), 'V':(3,0), 'Cr':(5,0), 'Mn':(5,0), 'Fe':(5,1), 'Cu':(5,5)}

cas={'Sc':3, 'Ti':4, 'V':5, 'Cr':6, 'Mn':7, 'Fe':8, 'Cu':11}

datacsv={}
for nm in ['atom','charge','method','basis','pseudopotential','hf',
           'totalenergy','totalenergy-stocherr','totalenergy-syserr']:
  datacsv[nm]=[]

basis='vqz'
el='Fe'
charge=0

mol=gto.Mole()
mol.ecp={}
mol.basis={}
mol.ecp[el]=gto.basis.parse_ecp(df[el]['ecp'])
mol.basis[el]=gto.basis.parse(df[el][basis])
mol.charge=charge
if el == 'Cr' or el == 'Cu':
  mol.spin=spins[el]-charge
else:
  mol.spin=spins[el]+charge
mol.build(atom="%s 0. 0. 0."%el,verbose=4)

m=ROHF(mol)
m.level_shift=1000.0
dm=m.from_chk("../../../../HF/atoms/"+el+basis+str(charge)+".chk")
hf=m.kernel(dm)
m.analyze()

from pyscf.shciscf import shci
mc = shci.SHCISCF(m, 6, cas[el]-charge)
#mc.fcisolver.conv_tol = 1e-14
mc.fcisolver.mpiprefix="mpirun -np 28"
mc.fcisolver.num_thrds=12
mc.verbose = 4
cas=mc.kernel()[0]
 
from pyscf.icmpspt import icmpspt
pt=icmpspt.icmpspt(mc,rdmM=500, PTM=1000,\
                          pttype="MRLCC",\
                          third_order=True,\
                          fully_ic=True,\
                          do_dm4=True)

datacsv['atom'].append(el)
datacsv['charge'].append(charge)
datacsv['method'].append('MRPT')
datacsv['basis'].append(basis)
datacsv['pseudopotential'].append('trail')
datacsv['hf'].append(hf)
datacsv['totalenergy'].append(cas+pt)
datacsv['totalenergy-stocherr'].append(0.0)
datacsv['totalenergy-syserr'].append(0.0)
pd.DataFrame(datacsv).to_csv(el+".csv",index=False)

#INFO: ******************** input file end ********************


System: ('Linux', 'bnode0308.rc.int.colorado.edu', '3.10.0-514.41.1.el7.x86_64', '#1 SMP Wed Jan 17 10:26:16 EST 2018', 'x86_64', 'x86_64')  Threads 1
Python 2.7.11 (default, Mar 22 2016, 01:42:54) 
[GCC Intel(R) C++ gcc 4.8 mode]
numpy 1.11.1  scipy 0.17.1
Date: Tue Mar 27 09:39:42 2018
PySCF version 1.4
PySCF path  /projects/bamu3429/softwares/pyscf_uptodate/pyscf
GIT ORIG_HEAD e2292e6edec2b0e0024c21b81de03db1d7bd4121
GIT HEAD      ref: refs/heads/master
GIT master branch  f3591ef22170896a4cdc2aadaa6f5da388ffcadb

[INPUT] VERBOSE 4
[INPUT] num atoms = 1
[INPUT] num electrons = 16
[INPUT] charge = 0
[INPUT] spin (= nelec alpha-beta = 2S) = 4
[INPUT] symmetry False subgroup None
[INPUT]  1 Fe     0.000000000000   0.000000000000   0.000000000000 AA    0.000000000000   0.000000000000   0.000000000000 Bohr
[INPUT] ---------------- BASIS SET ---------------- 
[INPUT] l, kappa, [nprim/nctr], expnt,             c_1 c_2 ...
[INPUT] Fe
[INPUT] 0    0    [12   /1   ]  41.79315189       0.013363
                                21.4479766        -0.225831
                                13.50597996       1.092302
                                9.47978339        -1.379238
                                4.48116767        0.183004
                                2.00533715        0.377557
                                1.21557711        0.591529
                                0.52042955        0.236703
                                0.24120153        -0.029854
                                0.11142434        0.02048
                                0.05213724        -0.006828
                                0.02419858        0.002604
[INPUT] 0    0    [12   /1   ]  41.79315189       -0.002034
                                21.4479766        0.04181
                                13.50597996       -0.22265
                                9.47978339        0.296462
                                4.48116767        -0.039261
                                2.00533715        -0.090727
                                1.21557711        -0.230375
                                0.52042955        -0.197211
                                0.24120153        0.111234
                                0.11142434        0.439139
                                0.05213724        0.516418
                                0.02419858        0.126845
[INPUT] 0    0    [12   /1   ]  41.79315189       -0.004837
                                21.4479766        0.142209
                                13.50597996       -0.903454
                                9.47978339        1.370339
                                4.48116767        -0.409377
                                2.00533715        -1.287567
                                1.21557711        0.205595
                                0.52042955        0.603911
                                0.24120153        0.738131
                                0.11142434        0.144644
                                0.05213724        -0.563073
                                0.02419858        -0.31909
[INPUT] 0    0    [12   /1   ]  41.79315189       -0.003884
                                21.4479766        0.166254
                                13.50597996       -1.213665
                                9.47978339        2.033455
                                4.48116767        -1.02974
                                2.00533715        -2.334822
                                1.21557711        2.086971
                                0.52042955        1.379229
                                0.24120153        -1.184835
                                0.11142434        -0.997257
                                0.05213724        0.546401
                                0.02419858        0.59844
[INPUT] 0    0    [12   /1   ]  41.79315189       -0.002831
                                21.4479766        -0.1658
                                13.50597996       1.74845
                                9.47978339        -3.545105
                                4.48116767        3.817957
                                2.00533715        0.21218
                                1.21557711        -4.041249
                                0.52042955        2.619566
                                0.24120153        1.026746
                                0.11142434        -2.118211
                                0.05213724        0.042195
                                0.02419858        0.853187
[INPUT] 0    0    [1    /1   ]  0.02419858           1
[INPUT] 0    0    [1    /1   ]  0.01123134           1
[INPUT] 1    0    [12   /1   ]  66.19105244       0.00032
                                34.58074578       -0.003142
                                17.77781378       0.029707
                                9.38371315        -0.152873
                                5.85185491        0.094627
                                3.39352009        0.227547
                                1.80084269        0.448024
                                0.88349057        0.318306
                                0.45376195        0.097682
                                0.18864625        0.012314
                                0.07756623        -0.001004
                                0.03189313        0.000474
[INPUT] 1    0    [12   /1   ]  66.19105244       -1.8e-05
                                34.58074578       0.000416
                                17.77781378       -0.005911
                                9.38371315        0.03555
                                5.85185491        -0.025962
                                3.39352009        -0.059781
                                1.80084269        -0.122371
                                0.88349057        -0.102075
                                0.45376195        0.039881
                                0.18864625        0.346137
                                0.07756623        0.528115
                                0.03189313        0.237416
[INPUT] 1    0    [12   /1   ]  66.19105244       -0.000757
                                34.58074578       0.002198
                                17.77781378       0.018471
                                9.38371315        -0.223198
                                5.85185491        0.199379
                                3.39352009        0.827171
                                1.80084269        0.013075
                                0.88349057        -0.896886
                                0.45376195        -0.312811
                                0.18864625        0.644499
                                0.07756623        0.378067
                                0.03189313        0.003975
[INPUT] 1    0    [12   /1   ]  66.19105244       -0.001362
                                34.58074578       0.004899
                                17.77781378       0.030086
                                9.38371315        -0.547347
                                5.85185491        1.144321
                                3.39352009        0.837657
                                1.80084269        -1.666445
                                0.88349057        -0.541803
                                0.45376195        1.568452
                                0.18864625        -0.154076
                                0.07756623        -0.636056
                                0.03189313        0.003625
[INPUT] 1    0    [12   /1   ]  66.19105244       -0.007466
                                34.58074578       0.041225
                                17.77781378       -0.113823
                                9.38371315        -0.593972
                                5.85185491        3.090393
                                3.39352009        -2.298941
                                1.80084269        -1.325372
                                0.88349057        2.843762
                                0.45376195        -1.264441
                                0.18864625        -0.765375
                                0.07756623        0.899235
                                0.03189313        -0.013792
[INPUT] 1    0    [1    /1   ]  0.03189313           1
[INPUT] 1    0    [1    /1   ]  0.01311358           1
[INPUT] 2    0    [10   /1   ]  58.21685909       0.000311
                                24.96806153       -0.010386
                                12.44413704       0.126915
                                5.48395408        0.166806
                                2.79137309        0.262721
                                1.34407118        0.316542
                                0.61230651        0.280074
                                0.27095461        0.158069
                                0.12811374        0.049028
                                0.05904405        0.008369
[INPUT] 2    0    [10   /1   ]  58.21685909       0.000385
                                24.96806153       0.007345
                                12.44413704       -0.129376
                                5.48395408        -0.235095
                                2.79137309        -0.387916
                                1.34407118        -0.056421
                                0.61230651        0.34416
                                0.27095461        0.401431
                                0.12811374        0.201425
                                0.05904405        0.045061
[INPUT] 2    0    [10   /1   ]  58.21685909       -0.002018
                                24.96806153       0.001015
                                12.44413704       0.127448
                                5.48395408        0.457991
                                2.79137309        0.230218
                                1.34407118        -0.694956
                                0.61230651        -0.373723
                                0.27095461        0.35233
                                0.12811374        0.420337
                                0.05904405        0.109669
[INPUT] 2    0    [10   /1   ]  58.21685909       -5.7e-05
                                24.96806153       -0.016008
                                12.44413704       0.319947
                                5.48395408        0.834009
                                2.79137309        -1.01955
                                1.34407118        -0.489125
                                0.61230651        0.956701
                                0.27095461        0.060729
                                0.12811374        -0.501922
                                0.05904405        -0.152504
[INPUT] 2    0    [1    /1   ]  0.05904405           1
[INPUT] 2    0    [1    /1   ]  0.02721175           1
[INPUT] 3    0    [1    /1   ]  4.808419             1
[INPUT] 3    0    [1    /1   ]  1.639843             1
[INPUT] 3    0    [1    /1   ]  0.559243             1
[INPUT] 3    0    [1    /1   ]  0.19072114           1
[INPUT] 4    0    [1    /1   ]  4.604195             1
[INPUT] 4    0    [1    /1   ]  1.569312             1
[INPUT] 4    0    [1    /1   ]  0.53489048           1
[INPUT] 5    0    [1    /1   ]  3.877747             1
[INPUT] 5    0    [1    /1   ]  1.32170656           1
nuclear repulsion = 0
number of shells = 29
number of NR pGTOs = 535
number of NR cGTOs = 135
basis = {'Fe': [[0, [41.79315189, 0.013363], [21.4479766, -0.225831], [13.50597996, 1.092302], [9.47978339, -1.379238], [4.48116767, 0.183004], [2.00533715, 0.377557], [1.21557711, 0.591529], [0.52042955, 0.236703], [0.24120153, -0.029854], [0.11142434, 0.02048], [0.05213724, -0.006828], [0.02419858, 0.002604]], [0, [41.79315189, -0.002034], [21.4479766, 0.04181], [13.50597996, -0.22265], [9.47978339, 0.296462], [4.48116767, -0.039261], [2.00533715, -0.090727], [1.21557711, -0.230375], [0.52042955, -0.197211], [0.24120153, 0.111234], [0.11142434, 0.439139], [0.05213724, 0.516418], [0.02419858, 0.126845]], [0, [41.79315189, -0.004837], [21.4479766, 0.142209], [13.50597996, -0.903454], [9.47978339, 1.370339], [4.48116767, -0.409377], [2.00533715, -1.287567], [1.21557711, 0.205595], [0.52042955, 0.603911], [0.24120153, 0.738131], [0.11142434, 0.144644], [0.05213724, -0.563073], [0.02419858, -0.31909]], [0, [41.79315189, -0.003884], [21.4479766, 0.166254], [13.50597996, -1.213665], [9.47978339, 2.033455], [4.48116767, -1.02974], [2.00533715, -2.334822], [1.21557711, 2.086971], [0.52042955, 1.379229], [0.24120153, -1.184835], [0.11142434, -0.997257], [0.05213724, 0.546401], [0.02419858, 0.59844]], [0, [41.79315189, -0.002831], [21.4479766, -0.1658], [13.50597996, 1.74845], [9.47978339, -3.545105], [4.48116767, 3.817957], [2.00533715, 0.21218], [1.21557711, -4.041249], [0.52042955, 2.619566], [0.24120153, 1.026746], [0.11142434, -2.118211], [0.05213724, 0.042195], [0.02419858, 0.853187]], [0, [0.02419858, 1.0]], [0, [0.01123134, 1.0]], [1, [66.19105244, 0.00032], [34.58074578, -0.003142], [17.77781378, 0.029707], [9.38371315, -0.152873], [5.85185491, 0.094627], [3.39352009, 0.227547], [1.80084269, 0.448024], [0.88349057, 0.318306], [0.45376195, 0.097682], [0.18864625, 0.012314], [0.07756623, -0.001004], [0.03189313, 0.000474]], [1, [66.19105244, -1.8e-05], [34.58074578, 0.000416], [17.77781378, -0.005911], [9.38371315, 0.03555], [5.85185491, -0.025962], [3.39352009, -0.059781], [1.80084269, -0.122371], [0.88349057, -0.102075], [0.45376195, 0.039881], [0.18864625, 0.346137], [0.07756623, 0.528115], [0.03189313, 0.237416]], [1, [66.19105244, -0.000757], [34.58074578, 0.002198], [17.77781378, 0.018471], [9.38371315, -0.223198], [5.85185491, 0.199379], [3.39352009, 0.827171], [1.80084269, 0.013075], [0.88349057, -0.896886], [0.45376195, -0.312811], [0.18864625, 0.644499], [0.07756623, 0.378067], [0.03189313, 0.003975]], [1, [66.19105244, -0.001362], [34.58074578, 0.004899], [17.77781378, 0.030086], [9.38371315, -0.547347], [5.85185491, 1.144321], [3.39352009, 0.837657], [1.80084269, -1.666445], [0.88349057, -0.541803], [0.45376195, 1.568452], [0.18864625, -0.154076], [0.07756623, -0.636056], [0.03189313, 0.003625]], [1, [66.19105244, -0.007466], [34.58074578, 0.041225], [17.77781378, -0.113823], [9.38371315, -0.593972], [5.85185491, 3.090393], [3.39352009, -2.298941], [1.80084269, -1.325372], [0.88349057, 2.843762], [0.45376195, -1.264441], [0.18864625, -0.765375], [0.07756623, 0.899235], [0.03189313, -0.013792]], [1, [0.03189313, 1.0]], [1, [0.01311358, 1.0]], [2, [58.21685909, 0.000311], [24.96806153, -0.010386], [12.44413704, 0.126915], [5.48395408, 0.166806], [2.79137309, 0.262721], [1.34407118, 0.316542], [0.61230651, 0.280074], [0.27095461, 0.158069], [0.12811374, 0.049028], [0.05904405, 0.008369]], [2, [58.21685909, 0.000385], [24.96806153, 0.007345], [12.44413704, -0.129376], [5.48395408, -0.235095], [2.79137309, -0.387916], [1.34407118, -0.056421], [0.61230651, 0.34416], [0.27095461, 0.401431], [0.12811374, 0.201425], [0.05904405, 0.045061]], [2, [58.21685909, -0.002018], [24.96806153, 0.001015], [12.44413704, 0.127448], [5.48395408, 0.457991], [2.79137309, 0.230218], [1.34407118, -0.694956], [0.61230651, -0.373723], [0.27095461, 0.35233], [0.12811374, 0.420337], [0.05904405, 0.109669]], [2, [58.21685909, -5.7e-05], [24.96806153, -0.016008], [12.44413704, 0.319947], [5.48395408, 0.834009], [2.79137309, -1.01955], [1.34407118, -0.489125], [0.61230651, 0.956701], [0.27095461, 0.060729], [0.12811374, -0.501922], [0.05904405, -0.152504]], [2, [0.05904405, 1.0]], [2, [0.02721175, 1.0]], [3, [4.808419, 1.0]], [3, [1.639843, 1.0]], [3, [0.559243, 1.0]], [3, [0.19072114, 1.0]], [4, [4.604195, 1.0]], [4, [1.569312, 1.0]], [4, [0.53489048, 1.0]], [5, [3.877747, 1.0]], [5, [1.32170656, 1.0]]]}
ecp = {'Fe': [10, [[-1, [[], [[16.90683491, 16.0]], [[18.40258134, 26847.81569895], [6.30300831, -133.54888707], [18.42848726, -26765.4049232], [18.43432023, 1.00742417]], [[7.01300654, 270.50935856]]]], [0, [[], [], [[9.62463353, 20308.8999348], [9.1270955, -17595.21707731], [7.5416384, 1884.69012383], [12.70900949, -4483.50209856], [8.14863339, -1094.38597968], [16.27611739, 1032.95376659]], []]], [1, [[], [], [[11.36514719, -905.00711112], [14.56762424, 34640.9358259], [15.05861359, -42299.94223895], [17.41337089, 10633.68808757], [18.3746752, -5844.19723669], [17.04734437, 3803.80414779]], []]], [2, [[], [], [[10.13935738, -11031.18647055], [13.45796076, 16711.37502047], [10.97387824, 37989.95033676], [11.92919033, -41782.92514683], [17.7123012, 3812.58339812], [17.32108913, -5718.00854971]], []]]]]}
CPU time:         0.59


******** <class 'pyscf.scf.rohf.ROHF'> flags ********
method = ROHF
initial guess = minao
damping factor = 0
level shift factor = 1000.0
DIIS = <class 'pyscf.scf.diis.CDIIS'>
DIIS start cycle = 1
DIIS space = 8
SCF tol = 1e-09
SCF gradient tol = None
max. SCF cycles = 50
direct_scf = True
direct_scf_tol = 1e-13
chkfile to save SCF result = /projects/bamu3429/BENCHMARK/fresh_atoms/MRPT/vqz/atoms/Fe_0/tmpHgASc6
max_memory 4000 MB (current use 83 MB)
num. doubly occ = 6  num. singly occ = 4
Set gradient conv threshold to 3.16228e-05
init E= -123.042692694942
  HOMO = 499.857945882687  LUMO = 1000.01961006925
cycle= 1 E= -123.042692694943  delta_E= -4.97e-13  |g|= 9.61e-06  |ddm|= 2.4e-08
  HOMO = -0.142054117567595  LUMO = 0.0196100692276926
Extra cycle  E= -123.04269269499  delta_E= -4.76e-11  |g|= 2.81e-06  |ddm|= 1.4e-05
converged SCF energy = -123.04269269499
**** MO energy ****
                Roothaan           | alpha              | beta
MO #1   energy= -4.41506319306267  | -4.60157769508284  | -4.22854871691536  occ= 2
MO #2   energy= -2.79713497333665  | -3.07086100355069  | -2.52340894312262  occ= 2
MO #3   energy= -2.79050583751389  | -2.99285230287219  | -2.58815937215559  occ= 2
MO #4   energy= -2.79050583751389  | -2.99285230287213  | -2.58815937215564  occ= 2
MO #5   energy= -0.543982901721919 | -0.608854229008619 | -0.479111574435219 occ= 2
MO #6   energy= -0.261972337574001 | -0.27581913188584  | -0.248125569908151 occ= 2
MO #7   energy= -0.189498944727013 | -0.703520666966146 | 0.324523098557506  occ= 1
MO #8   energy= -0.177554834120827 | -0.692570995471514 | 0.337461612637198  occ= 1
MO #9   energy= -0.177554834120773 | -0.692570995471462 | 0.337461612637265  occ= 1
MO #10  energy= -0.142054117567595 | -0.660985348201604 | 0.376877402281991  occ= 1
MO #11  energy= 0.0196100692276926 | 0.0183719069153192 | 0.0208482315400645 occ= 0
MO #12  energy= 0.0208118680600928 | 0.0199981370701789 | 0.0216255990500109 occ= 0
MO #13  energy= 0.0208118680600937 | 0.0199981370701802 | 0.0216255990500115 occ= 0
MO #14  energy= 0.0233350905627983 | 0.0228355680146896 | 0.0238346073602445 occ= 0
MO #15  energy= 0.0642372594554785 | 0.0608455840837138 | 0.0676289348272419 occ= 0
MO #16  energy= 0.0670768866461072 | 0.0644709942811544 | 0.0696827790110671 occ= 0
MO #17  energy= 0.0670768866461083 | 0.0644709942811528 | 0.0696827790110671 occ= 0
MO #18  energy= 0.0819701298036441 | 0.0817508509173302 | 0.0821894137820364 occ= 0
MO #19  energy= 0.0820578271688683 | 0.0818326849104963 | 0.0822829656601365 occ= 0
MO #20  energy= 0.0820578271688683 | 0.0818326849104958 | 0.0822829656601361 occ= 0
MO #21  energy= 0.0822902338099443 | 0.082207692931393  | 0.0823727746884961 occ= 0
MO #22  energy= 0.0823301823578827 | 0.0820885664925726 | 0.0825717913553996 occ= 0
MO #23  energy= 0.187937500128025  | 0.18274293722171   | 0.193132025057593  occ= 0
MO #24  energy= 0.248948839149268  | 0.244843421644368  | 0.253054246270175  occ= 0
MO #25  energy= 0.249619191481881  | 0.245407413570801  | 0.253830863715165  occ= 0
MO #26  energy= 0.249619191481881  | 0.245407413570805  | 0.253830863715168  occ= 0
MO #27  energy= 0.250152345560953  | 0.248702491903283  | 0.251602199218628  occ= 0
MO #28  energy= 0.251679179076444  | 0.240646682130492  | 0.262711676022404  occ= 0
MO #29  energy= 0.25174261003056   | 0.247238891419119  | 0.256246262763293  occ= 0
MO #30  energy= 0.257717798786476  | 0.249033843364562  | 0.266401754208394  occ= 0
MO #31  energy= 0.257717798786478  | 0.249033843364559  | 0.266401754208395  occ= 0
MO #32  energy= 0.637272107873749  | 0.625390123647331  | 0.649154044447279  occ= 0
MO #33  energy= 0.717396909615881  | 0.712468999118227  | 0.722324820113527  occ= 0
MO #34  energy= 0.717855777954808  | 0.713029841518498  | 0.722681714391113  occ= 0
MO #35  energy= 0.717855777954809  | 0.713029841518502  | 0.722681714391117  occ= 0
MO #36  energy= 0.719144502435089  | 0.715465880999616  | 0.722823123870561  occ= 0
MO #37  energy= 0.719346189325328  | 0.714067227685307  | 0.724625150965351  occ= 0
MO #38  energy= 0.721538896902271  | 0.718148689411157  | 0.724929104393387  occ= 0
MO #39  energy= 0.721538896902271  | 0.718148689411157  | 0.724929104393385  occ= 0
MO #40  energy= 0.891325568496066  | 0.87919487683249   | 0.903456260159644  occ= 0
MO #41  energy= 0.892673205530404  | 0.853678751216993  | 0.931667554690247  occ= 0
MO #42  energy= 0.896313909926217  | 0.856546669060777  | 0.936080962416436  occ= 0
MO #43  energy= 0.89631390992624   | 0.856546669060792  | 0.936080962416454  occ= 0
MO #44  energy= 0.907956324703664  | 0.866213434556014  | 0.949699007976275  occ= 0
MO #45  energy= 1.3895374434728    | 1.34840483985952   | 1.43067004708608   occ= 0
MO #46  energy= 1.40790306553079   | 1.37613627348959   | 1.43966985757199   occ= 0
MO #47  energy= 1.4079030655308    | 1.37613627348961   | 1.439669857572     occ= 0
MO #48  energy= 2.15757730020517   | 2.11135055342658   | 2.20380404698374   occ= 0
MO #49  energy= 2.15852924284353   | 2.11595178298679   | 2.20110670270026   occ= 0
MO #50  energy= 2.15852924284354   | 2.11595178298682   | 2.20110670270026   occ= 0
MO #51  energy= 2.16025334886309   | 2.1259535570833    | 2.19455314064288   occ= 0
MO #52  energy= 2.16504516761378   | 2.11623230742351   | 2.21385802780404   occ= 0
MO #53  energy= 2.16789541144685   | 2.13432288390126   | 2.20146793899244   occ= 0
MO #54  energy= 2.16789541144685   | 2.13432288390126   | 2.20146793899243   occ= 0
MO #55  energy= 2.50131717502972   | 2.48850359126579   | 2.51413075858855   occ= 0
MO #56  energy= 2.5020272335066    | 2.48908768838496   | 2.51496677840242   occ= 0
MO #57  energy= 2.50202723350661   | 2.48908768838496   | 2.51496677840243   occ= 0
MO #58  energy= 2.50342835577889   | 2.48980436716444   | 2.51705234436744   occ= 0
MO #59  energy= 2.50618672959477   | 2.4955832679208    | 2.51679019126873   occ= 0
MO #60  energy= 2.50961721994255   | 2.49896839245691   | 2.52026604729418   occ= 0
MO #61  energy= 2.50961721994255   | 2.49896839245693   | 2.52026604729418   occ= 0
MO #62  energy= 2.51147759322073   | 2.4748685864992    | 2.54808658799532   occ= 0
MO #63  energy= 2.51653841401993   | 2.50764518495889   | 2.52543164308097   occ= 0
MO #64  energy= 2.51684099052346   | 2.50564153107192   | 2.52804043229662   occ= 0
MO #65  energy= 3.52507488672246   | 3.43969847204658   | 3.61045126804385   occ= 0
MO #66  energy= 3.53128501354714   | 3.50132716567913   | 3.56124286141514   occ= 0
MO #67  energy= 3.53241492471269   | 3.44592305267811   | 3.61890680634599   occ= 0
MO #68  energy= 3.53241492471272   | 3.44592305267814   | 3.61890680634603   occ= 0
MO #69  energy= 3.5559675409667    | 3.46701417795196   | 3.644920891403     occ= 0
MO #70  energy= 5.24355236798627   | 5.18096997512138   | 5.30613476085115   occ= 0
MO #71  energy= 5.27834574404168   | 5.2300367011631    | 5.32665478692026   occ= 0
MO #72  energy= 5.27834574404174   | 5.23003670116318   | 5.3266547869203    occ= 0
MO #73  energy= 5.7285182111795    | 5.61782973289214   | 5.83920668946685   occ= 0
MO #74  energy= 5.73091226188089   | 5.62697728535209   | 5.83484723840969   occ= 0
MO #75  energy= 5.73091226188091   | 5.62697728535213   | 5.83484723840971   occ= 0
MO #76  energy= 5.73528460284068   | 5.6528970660567    | 5.81767213962467   occ= 0
MO #77  energy= 5.74317901550936   | 5.62660728397833   | 5.8597507470404    occ= 0
MO #78  energy= 5.75063144079577   | 5.67247261607149   | 5.82879026552005   occ= 0
MO #79  energy= 5.75063144079577   | 5.67247261607149   | 5.82879026552006   occ= 0
MO #80  energy= 7.45150217526863   | 7.42617734109905   | 7.47682700943821   occ= 0
MO #81  energy= 7.45203200880639   | 7.42632976631159   | 7.47773425130118   occ= 0
MO #82  energy= 7.45203200880639   | 7.42632976631158   | 7.47773425130118   occ= 0
MO #83  energy= 7.45275681508014   | 7.42638621365027   | 7.47912741651003   occ= 0
MO #84  energy= 7.46131868661957   | 7.44003372895405   | 7.48260364428511   occ= 0
MO #85  energy= 7.46470942070734   | 7.44323338294472   | 7.48618545846996   occ= 0
MO #86  energy= 7.46470942070735   | 7.44323338294474   | 7.48618545846997   occ= 0
MO #87  energy= 7.47299418599246   | 7.45221794889545   | 7.49377042308951   occ= 0
MO #88  energy= 7.47388113840127   | 7.45397771394749   | 7.49378456285504   occ= 0
MO #89  energy= 7.4870535054578    | 7.46975121865075   | 7.50435579226487   occ= 0
MO #90  energy= 7.48705350545781   | 7.46975121865075   | 7.50435579226487   occ= 0
MO #91  energy= 7.58120259822991   | 7.52717103841173   | 7.63523415749247   occ= 0
MO #92  energy= 7.58282729961289   | 7.52830265358672   | 7.63735194523854   occ= 0
MO #93  energy= 7.58282729961291   | 7.52830265358672   | 7.63735194523855   occ= 0
MO #94  energy= 7.58597322856369   | 7.52890892962726   | 7.64303752732127   occ= 0
MO #95  energy= 7.59302385469537   | 7.54829606148998   | 7.63775164790074   occ= 0
MO #96  energy= 7.60103513815341   | 7.5564998233338    | 7.64557045295383   occ= 0
MO #97  energy= 7.60103513815341   | 7.55649982333381   | 7.64557045295384   occ= 0
MO #98  energy= 7.61758248014578   | 7.58061532331599   | 7.65454963697557   occ= 0
MO #99  energy= 7.61776685477332   | 7.58144805918984   | 7.65408564344059   occ= 0
MO #100 energy= 10.2536078122592   | 10.1916645086913   | 10.3155511135495   occ= 0
MO #101 energy= 10.5919096394527   | 10.5196604724251   | 10.6641588102823   occ= 0
MO #102 energy= 10.5980883135969   | 10.5234613388468   | 10.6727152920028   occ= 0
MO #103 energy= 10.598088313597    | 10.5234613388468   | 10.6727152920028   occ= 0
MO #104 energy= 10.6167840491093   | 10.5862923560574   | 10.6472757421612   occ= 0
MO #105 energy= 10.6248702880068   | 10.5484575235962   | 10.7012830556533   occ= 0
MO #106 energy= 15.6388675298838   | 15.5348478232013   | 15.7428872365663   occ= 0
MO #107 energy= 15.6430964464078   | 15.5406401064416   | 15.745552786374    occ= 0
MO #108 energy= 15.6430964464079   | 15.5406401064416   | 15.745552786374    occ= 0
MO #109 energy= 15.6556151670215   | 15.5459055002578   | 15.7653248337851   occ= 0
MO #110 energy= 15.6560749450169   | 15.5774752639209   | 15.7346746261129   occ= 0
MO #111 energy= 15.6771796077455   | 15.6072875706455   | 15.7470716448454   occ= 0
MO #112 energy= 15.6771796077455   | 15.6072875706456   | 15.7470716448454   occ= 0
MO #113 energy= 15.8561416253315   | 15.7889122423161   | 15.9233710083468   occ= 0
MO #114 energy= 15.8980514066534   | 15.8459639447214   | 15.9501388685855   occ= 0
MO #115 energy= 15.8980514066535   | 15.8459639447215   | 15.9501388685855   occ= 0
MO #116 energy= 21.1064002560249   | 21.0286525556858   | 21.1841479564334   occ= 0
MO #117 energy= 21.1086384446478   | 21.0300923705994   | 21.1871845186633   occ= 0
MO #118 energy= 21.1086384446478   | 21.0300923705994   | 21.1871845186634   occ= 0
MO #119 energy= 21.1128035907804   | 21.0308783093119   | 21.1947288722022   occ= 0
MO #120 energy= 21.1241671288675   | 21.0597107960205   | 21.1886234617145   occ= 0
MO #121 energy= 21.1355250368724   | 21.0715305479893   | 21.1995195257261   occ= 0
MO #122 energy= 21.1355250368725   | 21.0715305479893   | 21.1995195257261   occ= 0
MO #123 energy= 21.1597661018561   | 21.1064688106136   | 21.2130633930987   occ= 0
MO #124 energy= 21.160131754498    | 21.1078294683295   | 21.2124340430289   occ= 0
MO #125 energy= 22.5410694568329   | 22.4863373898403   | 22.5958015238255   occ= 0
MO #126 energy= 22.5418295430126   | 22.4863162251225   | 22.5973428609027   occ= 0
MO #127 energy= 22.5418295430126   | 22.4863162251225   | 22.5973428609027   occ= 0
MO #128 energy= 22.5428317652404   | 22.4860608029739   | 22.5996027275069   occ= 0
MO #129 energy= 22.5586001886955   | 22.512512097127    | 22.6046882802639   occ= 0
MO #130 energy= 22.5641656815519   | 22.5178667257058   | 22.6104646373979   occ= 0
MO #131 energy= 22.5641656815519   | 22.5178667257058   | 22.6104646373979   occ= 0
MO #132 energy= 22.5781008641134   | 22.5333977511492   | 22.6228039770776   occ= 0
MO #133 energy= 22.5798392146838   | 22.5370162590787   | 22.6226621702888   occ= 0
MO #134 energy= 22.6024453209929   | 22.5653007619337   | 22.6395898800522   occ= 0
MO #135 energy= 22.602445320993    | 22.5653007619337   | 22.6395898800522   occ= 0
 ** Mulliken pop on meta-lowdin orthogonal AOs  **
 ** Mulliken pop  **
pop of  0Fe 3s        1.99996
pop of  0Fe 4s        1.99791
pop of  0Fe 5s        0.00094
pop of  0Fe 6s        0.00029
pop of  0Fe 7s        0.00000
pop of  0Fe 8s        0.00018
pop of  0Fe 9s        0.00019
pop of  0Fe 3px       1.99986
pop of  0Fe 3py       1.99986
pop of  0Fe 3pz       1.99984
pop of  0Fe 4px       0.00004
pop of  0Fe 4py       0.00004
pop of  0Fe 4pz       0.00010
pop of  0Fe 5px       0.00001
pop of  0Fe 5py       0.00001
pop of  0Fe 5pz       0.00002
pop of  0Fe 6px       0.00000
pop of  0Fe 6py       0.00000
pop of  0Fe 6pz       0.00001
pop of  0Fe 7px       0.00000
pop of  0Fe 7py       0.00000
pop of  0Fe 7pz       0.00000
pop of  0Fe 8px       0.00000
pop of  0Fe 8py       0.00000
pop of  0Fe 8pz       0.00000
pop of  0Fe 9px       0.00000
pop of  0Fe 9py       0.00000
pop of  0Fe 9pz       0.00000
pop of  0Fe 3dxy      1.99996
pop of  0Fe 3dyz      0.99705
pop of  0Fe 3dz^2     0.99689
pop of  0Fe 3dxz      0.99705
pop of  0Fe 3dx2-y2    0.99791
pop of  0Fe 4dxy      0.00000
pop of  0Fe 4dyz      0.00226
pop of  0Fe 4dz^2     0.00276
pop of  0Fe 4dxz      0.00226
pop of  0Fe 4dx2-y2    0.00157
pop of  0Fe 5dxy      0.00001
pop of  0Fe 5dyz      0.00028
pop of  0Fe 5dz^2     0.00035
pop of  0Fe 5dxz      0.00028
pop of  0Fe 5dx2-y2    0.00021
pop of  0Fe 6dxy      0.00001
pop of  0Fe 6dyz      0.00001
pop of  0Fe 6dz^2     0.00001
pop of  0Fe 6dxz      0.00001
pop of  0Fe 6dx2-y2    0.00001
pop of  0Fe 7dxy      0.00001
pop of  0Fe 7dyz      0.00036
pop of  0Fe 7dz^2     0.00046
pop of  0Fe 7dxz      0.00036
pop of  0Fe 7dx2-y2    0.00027
pop of  0Fe 8dxy      0.00000
pop of  0Fe 8dyz      0.00003
pop of  0Fe 8dz^2     0.00004
pop of  0Fe 8dxz      0.00003
pop of  0Fe 8dx2-y2    0.00002
pop of  0Fe 4fy^3     0.00001
pop of  0Fe 4fxyz     0.00000
pop of  0Fe 4fyz^2    0.00000
pop of  0Fe 4fz^3     0.00001
pop of  0Fe 4fxz^2    0.00000
pop of  0Fe 4fzx^2    0.00000
pop of  0Fe 4fx^3     0.00001
pop of  0Fe 5fy^3     0.00004
pop of  0Fe 5fxyz     0.00000
pop of  0Fe 5fyz^2    0.00000
pop of  0Fe 5fz^3     0.00002
pop of  0Fe 5fxz^2    0.00000
pop of  0Fe 5fzx^2    0.00000
pop of  0Fe 5fx^3     0.00004
pop of  0Fe 6fy^3     0.00002
pop of  0Fe 6fxyz     0.00000
pop of  0Fe 6fyz^2    0.00000
pop of  0Fe 6fz^3     0.00000
pop of  0Fe 6fxz^2    0.00000
pop of  0Fe 6fzx^2    0.00000
pop of  0Fe 6fx^3     0.00002
pop of  0Fe 7fy^3     0.00000
pop of  0Fe 7fxyz     0.00000
pop of  0Fe 7fyz^2    0.00000
pop of  0Fe 7fz^3     0.00000
pop of  0Fe 7fxz^2    0.00000
pop of  0Fe 7fzx^2    0.00000
pop of  0Fe 7fx^3     0.00000
pop of  0Fe 5g-4      0.00000
pop of  0Fe 5g-3      0.00000
pop of  0Fe 5g-2      0.00000
pop of  0Fe 5g-1      0.00000
pop of  0Fe 5g 0      0.00000
pop of  0Fe 5g 1      0.00000
pop of  0Fe 5g 2      0.00000
pop of  0Fe 5g 3      0.00000
pop of  0Fe 5g 4      0.00000
pop of  0Fe 6g-4      0.00000
pop of  0Fe 6g-3      0.00000
pop of  0Fe 6g-2      0.00000
pop of  0Fe 6g-1      0.00001
pop of  0Fe 6g 0      0.00001
pop of  0Fe 6g 1      0.00001
pop of  0Fe 6g 2      0.00000
pop of  0Fe 6g 3      0.00000
pop of  0Fe 6g 4      0.00000
pop of  0Fe 7g-4      0.00000
pop of  0Fe 7g-3      0.00000
pop of  0Fe 7g-2      0.00000
pop of  0Fe 7g-1      0.00001
pop of  0Fe 7g 0      0.00001
pop of  0Fe 7g 1      0.00001
pop of  0Fe 7g 2      0.00000
pop of  0Fe 7g 3      0.00000
pop of  0Fe 7g 4      0.00000
pop of  0Fe 6h-5      0.00000
pop of  0Fe 6h-4      0.00000
pop of  0Fe 6h-3      0.00000
pop of  0Fe 6h-2      0.00000
pop of  0Fe 6h-1      0.00000
pop of  0Fe 6h 0      0.00000
pop of  0Fe 6h 1      0.00000
pop of  0Fe 6h 2      0.00000
pop of  0Fe 6h 3      0.00000
pop of  0Fe 6h 4      0.00000
pop of  0Fe 6h 5      0.00000
pop of  0Fe 7h-5      0.00000
pop of  0Fe 7h-4      0.00000
pop of  0Fe 7h-3      0.00000
pop of  0Fe 7h-2      0.00000
pop of  0Fe 7h-1      0.00000
pop of  0Fe 7h 0      0.00000
pop of  0Fe 7h 1      0.00000
pop of  0Fe 7h 2      0.00000
pop of  0Fe 7h 3      0.00000
pop of  0Fe 7h 4      0.00000
pop of  0Fe 7h 5      0.00000
 ** Mulliken atomic charges  **
charge of  0Fe =     -0.00000

******** <class 'pyscf.mcscf.mc1step.CASSCF'> flags ********
CAS (6e+2e, 6o), ncore = 4, nvir = 125
max_cycle_macro = 50
max_cycle_micro = 4
conv_tol = 1e-07
conv_tol_grad = None
orbital rotation max_stepsize = 0.02
augmented hessian ah_max_cycle = 30
augmented hessian ah_conv_tol = 1e-12
augmented hessian ah_linear dependence = 1e-14
augmented hessian ah_level shift = 0
augmented hessian ah_start_tol = 2.5
augmented hessian ah_start_cycle = 3
augmented hessian ah_grad_trust_region = 3
kf_trust_region = 3
kf_interval = 4
ci_response_space = 4
ci_grad_trust_region = 3
with_dep4 0
natorb = False
canonicalization = True
chkfile = ./scratch/168720/tmpUaAcyQ
max_memory 4000 MB (current use 435 MB)
internal_rotation = False

******** SHCI flags ********
executable             = /home/bamu3429/softwares/dice/Dice
mpiprefix              = mpirun -np 28
scratchDirectory       = ./scratch/168720
integralFile           = ./FCIDUMP
configFile             = ./input.dat
outputFile             = ./output.dat
maxIter                = 6
sweep_iter             = []
sweep_epsilon          = []
nPTiter                = 0
Stochastic             = True
fullrestart            = False
restart                = False
num_thrds              = 12
memory                 = None

CASCI E = -123.042692694992  S^2 = 6.0000000
Set conv_tol_grad to 0.000316228
macro iter 1 (1 JK  1 micro), CASSCF E = -123.042692694992  dE = 0  S^2 = 6.0000000
               |grad[o]|=2.78e-06  |grad[c]|= None  |ddm|=    0
1-step CASSCF converged in 1 macro (1 JK 1 micro) steps
CASSCF canonicalization
CASSCF energy = -123.042692694992


--------------------------------------------------
                 ICMPSPT CALCULATION              
--------------------------------------------------

Perturbation type: MRLCC
With fully internally contracted scheme
With third order correction

Preparing necessary RDMs
......production of RDMs took       0.41 sec
Reading binary 4RDM from DICE
......reading the RDM took          0.98 sec

(GOOD) Trace 4RDM:   1680.0 =    8*    7*    6*    5
(GOOD) Trace 3RDM:    336.0 =    8*    7*    6
(GOOD) Trace 2RDM:     56.0 =    8*    7
(GOOD) Trace 1RDM:      8.0 =    8

Producing the integrals
......production of INT took    1537.66 sec

Energy_core =  -101.634796545
Energy      =  -123.042692695

WARNING: Have to use natural orbitals from CAASCF
         offdiagonal elements: 1.03962957866

Basic ingredients written to int/
......savings of INGREDIENTS took     322.76 sec

Second-order:
perturber CCVV --        -0.113961560
perturber CCAV --        -0.038213809
perturber ACVV --        -0.218370997
perturber CCAA --        -0.017726170
perturber AAVV --        -0.209082514
perturber CAAV --        -0.111929983
perturber AAAV --        -0.008227989
perturber AAAC --        -0.000000000
Total:                   -0.717513021

Third-order:             -0.000712063

Total PT       --        -0.718225084

