 &FCI NORB=6 ,NELEC=5 ,MS2=5,
  ORBSYM=1,1,1,1,1,1,
  ISYM=1,
 &END
  7.450529564624e-01    1  1  1  1
  1.029902173786e-08    2  1  1  1
  1.705744307623e-02    2  1  2  1
  7.109379928003e-01    2  2  1  1
  1.245944014408e-08    2  2  2  1
  7.450527836291e-01    2  2  2  2
 -6.309737642880e-09    3  1  1  1
 -1.972862496767e-04    3  1  2  1
  1.187779422518e-03    3  1  2  2
  2.367656527469e-02    3  1  3  1
  3.945676983143e-04    3  2  1  1
 -5.938917164430e-04    3  2  2  1
 -1.378922262719e-09    3  2  2  2
 -5.364661004888e-04    3  2  3  1
  2.831676998256e-02    3  2  3  2
  6.976998256588e-01    3  3  1  1
  1.072959263067e-03    3  3  2  1
  6.884192045175e-01    3  3  2  2
  6.602505829464e-09    3  3  3  1
 -4.284691775417e-11    3  3  3  2
  7.450527003538e-01    3  3  3  3
  7.240966233945e-08    4  1  1  1
  5.960554314729e-04    4  1  2  1
 -4.544281566922e-03    4  1  2  2
  9.877151952813e-05    4  1  3  1
 -1.231161433746e-02    4  1  3  2
  8.545767252647e-03    4  1  3  3
  3.202728508117e-02    4  1  4  1
 -1.192117350030e-03    4  2  1  1
  2.272186992679e-03    4  2  2  1
  1.048727696161e-08    4  2  2  2
  8.582732774451e-03    4  2  3  1
 -3.919546046946e-04    4  2  3  2
  2.344777952244e-03    4  2  3  3
  2.002590034403e-04    4  2  4  1
  2.919165977324e-02    4  2  4  2
 -1.975546062158e-04    4  3  1  1
  3.728994603753e-03    4  3  2  1
  7.839373941570e-04    4  3  2  2
 -4.272890136064e-03    4  3  3  1
 -1.172394087172e-03    4  3  3  2
  7.214665617462e-09    4  3  3  3
 -2.314355720459e-05    4  3  4  1
  1.588725721979e-03    4  3  4  2
  2.735536995196e-02    4  3  4  3
  6.809978854375e-01    4  4  1  1
 -4.005513354298e-04    4  4  2  1
  6.866694176259e-01    4  4  2  2
  4.628342483842e-05    4  4  3  1
 -3.177366699861e-03    4  4  3  2
  6.903418632863e-01    4  4  3  3
 -6.740644643495e-08    4  4  4  1
 -7.826313242385e-09    4  4  4  2
  9.981918508833e-10    4  4  4  3
  7.450525600901e-01    4  4  4  4
  1.079578483397e-07    5  1  1  1
  2.607078154575e-04    5  1  2  1
 -8.209086969089e-03    5  1  2  2
 -7.999327748234e-04    5  1  3  1
  7.262538376434e-03    5  1  3  2
  1.455082885668e-02    5  1  3  3
  4.113289764640e-04    5  1  4  1
  7.573790288072e-04    5  1  4  2
 -1.262834136671e-03    5  1  4  3
 -6.341734283767e-03    5  1  4  4
  3.232205937289e-02    5  1  5  1
 -5.214061060121e-04    5  2  1  1
  4.104620985992e-03    5  2  2  1
  2.131996471291e-08    5  2  2  2
 -5.348816612718e-03    5  2  3  1
  3.041180704314e-04    5  2  3  2
  8.878416685222e-04    5  2  3  3
 -1.093634555552e-03    5  2  4  1
  1.240698467794e-03    5  2  4  2
  1.310995354024e-02    5  2  4  3
 -3.664308648343e-04    5  2  4  4
  3.361913205268e-04    5  2  5  1
  3.051761006366e-02    5  2  5  2
  1.599905504684e-03    5  3  1  1
 -1.913785634022e-03    5  3  2  1
 -6.082557147231e-04    5  3  2  2
 -7.275428348257e-03    5  3  3  1
 -4.439201260209e-04    5  3  3  2
  1.167468018105e-08    5  3  3  3
  1.634012595284e-03    5  3  4  1
 -1.155446755345e-02    5  3  4  2
 -1.651988109452e-03    5  3  4  3
 -9.916369516272e-04    5  3  4  4
  6.170399411387e-04    5  3  5  1
 -1.391441530694e-03    5  3  5  2
  2.573468545099e-02    5  3  5  3
 -8.225666172323e-04    5  4  1  1
  3.362558665890e-04    5  4  2  1
 -2.481302649853e-03    5  4  2  2
 -3.711759407803e-04    5  4  3  1
 -1.555435628401e-03    5  4  3  2
  3.303900649046e-03    5  4  3  3
  3.170812926435e-03    5  4  4  1
  1.832121292779e-04    5  4  4  2
  4.958181004842e-04    5  4  4  3
 -2.574746297595e-08    5  4  4  4
  2.000712602106e-03    5  4  5  1
  5.763323358442e-04    5  4  5  2
  2.931855022422e-04    5  4  5  3
  1.650896391081e-02    5  4  5  4
  6.804084323090e-01    5  5  1  1
 -6.724190228299e-04    5  5  2  1
  6.840176269334e-01    5  5  2  2
 -1.234054154962e-03    5  5  3  1
  2.782794946896e-03    5  5  3  2
  6.935831491108e-01    5  5  3  3
 -4.001466472405e-03    5  5  4  1
 -1.152669364513e-03    5  5  4  2
 -5.863735353448e-04    5  5  4  3
  7.120346123613e-01    5  5  4  4
 -1.102033534101e-07    5  5  5  1
 -1.413767355957e-08    5  5  5  2
 -9.898579257987e-10    5  5  5  3
 -2.436187154433e-08    5  5  5  4
  7.450525158043e-01    5  5  5  5
  2.162731645513e-03    6  1  1  1
  6.440387944614e-05    6  1  2  1
  8.007277464997e-04    6  1  2  2
 -1.234275515914e-04    6  1  3  1
 -2.861235567120e-05    6  1  3  2
  1.883616994289e-03    6  1  3  3
  9.932874476431e-04    6  1  4  1
 -1.271974262019e-04    6  1  4  2
 -9.209985308961e-05    6  1  4  3
 -2.574083326847e-03    6  1  4  4
  1.494720222307e-03    6  1  5  1
 -4.638213433374e-05    6  1  5  2
  3.980650402824e-04    6  1  5  3
  2.589860563597e-04    6  1  5  4
 -2.318388135512e-03    6  1  5  5
  6.483877394556e-03    6  1  6  1
  6.327022056553e-05    6  2  1  1
  8.095387954639e-04    6  2  2  1
  2.784393086287e-04    6  2  2  2
 -2.859425087822e-05    6  2  3  1
 -7.123301669175e-05    6  2  3  2
  2.203412734010e-04    6  2  3  3
 -1.272039173763e-04    6  2  4  1
  1.362029948914e-03    6  2  4  2
  2.100139489049e-03    6  2  4  3
 -2.222070030067e-04    6  2  4  4
 -4.637201627313e-05    6  2  5  1
  2.316151823064e-03    6  2  5  2
 -1.209588274078e-03    6  2  5  3
  7.460835799986e-05    6  2  5  4
 -3.456653463593e-04    6  2  5  5
 -3.348661985780e-09    6  2  6  1
  6.483901521646e-03    6  2  6  2
 -1.232083551670e-04    6  3  1  1
 -2.859789871598e-05    6  3  2  1
 -7.102410727958e-05    6  3  2  2
  1.892651479105e-03    6  3  3  1
  2.214897967823e-04    6  3  3  2
  4.463770016658e-04    6  3  3  3
 -9.209511441405e-05    6  3  4  1
  2.100391866748e-03    6  3  4  2
 -1.024712767778e-03    6  3  4  3
 -1.020662207514e-04    6  3  4  4
  3.981286501820e-04    6  3  5  1
 -1.209715974607e-03    6  3  5  2
 -1.755291187545e-03    6  3  5  3
 -3.490347715749e-05    6  3  5  4
 -1.487472078390e-04    6  3  5  5
 -1.719771778531e-09    6  3  6  1
  1.975556343950e-09    6  3  6  2
  6.483995600917e-03    6  3  6  3
  9.902704614933e-04    6  4  1  1
 -1.272281361136e-04    6  4  2  1
  1.359122332010e-03    6  4  2  2
 -9.213292226483e-05    6  4  3  1
  2.100736055435e-03    6  4  3  2
 -1.028222351831e-03    6  4  3  3
 -2.566145443801e-03    6  4  4  1
 -2.211657022847e-04    6  4  4  2
 -1.023447792604e-04    6  4  4  3
 -1.033945633065e-03    6  4  4  4
  2.590348670451e-04    6  4  5  1
  7.464259650247e-05    6  4  5  2
 -3.491012096771e-05    6  4  5  3
 -5.091542274789e-04    6  4  5  4
 -3.043103076538e-04    6  4  5  5
 -6.822975787244e-09    6  4  6  1
  1.839292599989e-09    6  4  6  2
 -5.428110440135e-09    6  4  6  3
  6.484132195574e-03    6  4  6  4
  1.489405816519e-03    6  5  1  1
 -4.639404752281e-05    6  5  2  1
  2.311041538917e-03    6  5  2  2
  3.981688652911e-04    6  5  3  1
 -1.209929092355e-03    6  5  3  2
 -1.761415077202e-03    6  5  3  3
  2.590501987412e-04    6  5  4  1
  7.460731783151e-05    6  5  4  2
 -3.491538151990e-05    6  5  4  3
 -5.149527821203e-04    6  5  4  4
 -2.310382289137e-03    6  5  5  1
 -3.446556520466e-04    6  5  5  2
 -1.490314426728e-04    6  5  5  3
 -3.010269833072e-04    6  5  5  4
 -1.554102194864e-03    6  5  5  5
 -1.606740243842e-09    6  5  6  1
 -3.235848026925e-09    6  5  6  2
 -6.837149479385e-09    6  5  6  3
  4.593694532176e-09    6  5  6  4
  6.484138467107e-03    6  5  6  5
  2.954730611969e-01    6  6  1  1
 -2.470436788802e-09    6  6  2  1
  2.954730789441e-01    6  6  2  2
 -1.158502801212e-09    6  6  3  1
  1.468983934012e-09    6  6  3  2
  2.954731482916e-01    6  6  3  3
 -4.983588326277e-09    6  6  4  1
  1.353790220290e-09    6  6  4  2
 -4.020275107164e-09    6  6  4  3
  2.954732484044e-01    6  6  4  4
 -1.268607765984e-09    6  6  5  1
 -2.335654309888e-09    6  6  5  2
 -5.033712983450e-09    6  6  5  3
  3.242046693364e-09    6  6  5  4
  2.954732532507e-01    6  6  5  5
 -1.721896408746e-06    6  6  6  1
 -2.208339884535e-07    6  6  6  2
  5.109151214794e-08    6  6  6  3
 -6.484957430580e-07    6  6  6  4
 -1.139271904094e-06    6  6  6  5
  2.300232122919e-01    6  6  6  6
 -3.311117616792e+00    1  1  0  0
 -5.881493014939e-09    2  1  0  0
 -3.311117587255e+00    2  2  0  0
 -5.256309104301e-09    3  1  0  0
  2.421198940123e-09    3  2  0  0
 -3.311117455250e+00    3  3  0  0
 -1.226869638791e-08    4  1  0  0
  3.070006623937e-09    4  2  0  0
 -8.518174205671e-09    4  3  0  0
 -3.311117268500e+00    4  4  0  0
 -2.490155222381e-09    5  1  0  0
 -6.159441145586e-09    5  2  0  0
 -1.188989544840e-08    5  3  0  0
  1.021444475358e-08    5  4  0  0
 -3.311117272139e+00    5  5  0  0
  3.707024154170e-05    6  1  0  0
  4.753978757114e-06    6  2  0  0
 -1.087894873330e-06    6  3  0  0
  1.395285859577e-05    6  4  0  0
  2.451764509093e-05    6  5  0  0
 -1.659670675036e+00    6  6  0  0
    -76.105397949669   0  0  0  0
