#INFO: **** input file is /projects/bamu3429/BENCHMARK/fresh_atoms/MRPT/vtz/atoms/Cr_1/mrpt.py ****
import json
from pyscf import gto,scf,mcscf, fci, lo, ci, cc
from pyscf.scf import ROHF, UHF,ROKS
import numpy as np
import pandas as pd

# THIS IS WERE IT STARTS ====================================

df=json.load(open("../../../trail.json"))

spins={'Sc':1, 'Ti':2, 'V':3, 'Cr':6, 'Mn':5, 'Fe':4, 'Cu':1}

nd={'Sc':(1,0), 'Ti':(2,0), 'V':(3,0), 'Cr':(5,0), 'Mn':(5,0), 'Fe':(5,1), 'Cu':(5,5)}

cas={'Sc':3, 'Ti':4, 'V':5, 'Cr':6, 'Mn':7, 'Fe':8, 'Cu':11}

datacsv={}
for nm in ['atom','charge','method','basis','pseudopotential','hf',
           'totalenergy','totalenergy-stocherr','totalenergy-syserr']:
  datacsv[nm]=[]

basis='vtz'
el='Cr'
charge=1

mol=gto.Mole()
mol.ecp={}
mol.basis={}
mol.ecp[el]=gto.basis.parse_ecp(df[el]['ecp'])
mol.basis[el]=gto.basis.parse(df[el][basis])
mol.charge=charge
if el == 'Cr' or el == 'Cu':
  mol.spin=spins[el]-charge
else:
  mol.spin=spins[el]+charge
mol.build(atom="%s 0. 0. 0."%el,verbose=4)

m=ROHF(mol)
m.level_shift=1000.0
dm=m.from_chk("../../../../HF/atoms/"+el+basis+str(charge)+".chk")
hf=m.kernel(dm)
m.analyze()

from pyscf.shciscf import shci
mc = shci.SHCISCF(m, 6, cas[el]-charge)
#mc.fcisolver.conv_tol = 1e-14
mc.fcisolver.mpiprefix="srun -n20"
mc.fcisolver.num_thrds=12
mc.verbose = 4
cas=mc.kernel()[0]
 
from pyscf.icmpspt import icmpspt
pt=icmpspt.icmpspt(mc,rdmM=500, PTM=1000,\
                          pttype="MRLCC",\
                          third_order=True,\
                          fully_ic=True,\
                          do_dm4=True)

datacsv['atom'].append(el)
datacsv['charge'].append(charge)
datacsv['method'].append('MRPT')
datacsv['basis'].append(basis)
datacsv['pseudopotential'].append('trail')
datacsv['hf'].append(hf)
datacsv['totalenergy'].append(cas+pt)
datacsv['totalenergy-stocherr'].append(0.0)
datacsv['totalenergy-syserr'].append(0.0)
pd.DataFrame(datacsv).to_csv(el+".csv",index=False)

#INFO: ******************** input file end ********************


System: ('Linux', 'bnode0302.rc.int.colorado.edu', '3.10.0-514.41.1.el7.x86_64', '#1 SMP Wed Jan 17 10:26:16 EST 2018', 'x86_64', 'x86_64')  Threads 28
Python 2.7.11 (default, Mar 22 2016, 01:42:54) 
[GCC Intel(R) C++ gcc 4.8 mode]
numpy 1.11.1  scipy 0.17.1
Date: Wed Apr 18 16:20:41 2018
PySCF version 1.4.6
PySCF path  /projects/bamu3429/softwares/pyscf_uptodate/pyscf
GIT ORIG_HEAD f3591ef22170896a4cdc2aadaa6f5da388ffcadb
GIT HEAD      ref: refs/heads/master
GIT master branch  1847583fb1d2472321833d3c71c8b7008e5fabf5

[INPUT] VERBOSE 4
[INPUT] num atoms = 1
[INPUT] num electrons = 13
[INPUT] charge = 1
[INPUT] spin (= nelec alpha-beta = 2S) = 5
[INPUT] symmetry False subgroup None
[INPUT]  1 Cr     0.000000000000   0.000000000000   0.000000000000 AA    0.000000000000   0.000000000000   0.000000000000 Bohr
[INPUT] ---------------- BASIS SET ---------------- 
[INPUT] l, kappa, [nprim/nctr], expnt,             c_1 c_2 ...
[INPUT] Cr
[INPUT] 0    0    [12   /1   ]  41.45590127       0.010332
                                22.20089455       -0.091393
                                12.37022616       0.412444
                                7.15443966        -0.722409
                                3.63012556        0.039693
                                1.88942247        0.321055
                                1.04381355        0.652182
                                0.47307333        0.264443
                                0.22628807        -0.008646
                                0.10750747        0.012188
                                0.05101028        -0.00242
                                0.0242372         0.001733
[INPUT] 0    0    [12   /1   ]  41.45590127       -0.001971
                                22.20089455       0.019152
                                12.37022616       -0.094562
                                7.15443966        0.178991
                                3.63012556        -0.015716
                                1.88942247        -0.084882
                                1.04381355        -0.243744
                                0.47307333        -0.214624
                                0.22628807        0.055092
                                0.10750747        0.415903
                                0.05101028        0.543473
                                0.0242372         0.170131
[INPUT] 0    0    [12   /1   ]  41.45590127       -0.005985
                                22.20089455       0.069637
                                12.37022616       -0.403654
                                7.15443966        0.899468
                                3.63012556        -0.19655
                                1.88942247        -1.358682
                                1.04381355        -0.066602
                                0.47307333        0.748011
                                0.22628807        0.743168
                                0.10750747        0.120335
                                0.05101028        -0.554574
                                0.0242372         -0.284337
[INPUT] 0    0    [12   /1   ]  41.45590127       -0.005431
                                22.20089455       0.075825
                                12.37022616       -0.506871
                                7.15443966        1.314927
                                3.63012556        -0.7377
                                1.88942247        -2.271634
                                1.04381355        1.711851
                                0.47307333        1.720924
                                0.22628807        -1.434003
                                0.10750747        -1.046849
                                0.05101028        0.595081
                                0.0242372         0.606245
[INPUT] 0    0    [1    /1   ]  0.0242372            1
[INPUT] 0    0    [1    /1   ]  0.01151614           1
[INPUT] 1    0    [12   /1   ]  28.88080716       -0.002973
                                13.19380569       0.044202
                                7.25722596        -0.232476
                                4.84342676        0.167654
                                2.76949909        0.179744
                                1.50719356        0.46058
                                0.72516508        0.338218
                                0.36385743        0.097984
                                0.16204617        0.012145
                                0.07447705        -0.000948
                                0.03422994        0.000821
                                0.01573221        -0.00022
[INPUT] 1    0    [12   /1   ]  28.88080716       0.000536
                                13.19380569       -0.009363
                                7.25722596        0.054752
                                4.84342676        -0.042977
                                2.76949909        -0.049244
                                1.50719356        -0.128712
                                0.72516508        -0.11682
                                0.36385743        0.044517
                                0.16204617        0.322192
                                0.07447705        0.482878
                                0.03422994        0.275764
                                0.01573221        0.025472
[INPUT] 1    0    [12   /1   ]  28.88080716       -0.000428
                                13.19380569       0.034429
                                7.25722596        -0.307446
                                4.84342676        0.24996
                                2.76949909        0.789151
                                1.50719356        0.129313
                                0.72516508        -0.921684
                                0.36385743        -0.378847
                                0.16204617        0.566809
                                0.07447705        0.440905
                                0.03422994        0.024535
                                0.01573221        0.005078
[INPUT] 1    0    [12   /1   ]  28.88080716       0.002227
                                13.19380569       0.046024
                                7.25722596        -0.727345
                                4.84342676        1.251481
                                2.76949909        1.00182
                                1.50719356        -1.701806
                                0.72516508        -0.622978
                                0.36385743        1.581831
                                0.16204617        -0.060905
                                0.07447705        -0.667464
                                0.03422994        -0.031147
                                0.01573221        -0.01129
[INPUT] 1    0    [1    /1   ]  0.01573221           1
[INPUT] 1    0    [1    /1   ]  0.00723058           1
[INPUT] 2    0    [10   /1   ]  46.50908408       0.000358
                                21.60133229       -0.010512
                                11.03652449       0.11118
                                4.54288797        0.164184
                                2.18180243        0.267436
                                1.04009058        0.310836
                                0.48262909        0.28353
                                0.21570372        0.173079
                                0.10059873        0.057279
                                0.04653409        0.00937
[INPUT] 2    0    [10   /1   ]  46.50908408       0.000725
                                21.60133229       0.005694
                                11.03652449       -0.104091
                                4.54288797        -0.217444
                                2.18180243        -0.413534
                                1.04009058        -0.07805
                                0.48262909        0.290464
                                0.21570372        0.417258
                                0.10059873        0.237439
                                0.04653409        0.051282
[INPUT] 2    0    [10   /1   ]  46.50908408       -0.003236
                                21.60133229       0.00626
                                11.03652449       0.082765
                                4.54288797        0.409918
                                2.18180243        0.374551
                                1.04009058        -0.692379
                                0.48262909        -0.433198
                                0.21570372        0.307071
                                0.10059873        0.45679
                                0.04653409        0.105679
[INPUT] 2    0    [1    /1   ]  0.04653409           1
[INPUT] 2    0    [1    /1   ]  0.02152533           1
[INPUT] 3    0    [1    /1   ]  2.951278             1
[INPUT] 3    0    [1    /1   ]  0.820301             1
[INPUT] 3    0    [1    /1   ]  0.22800079           1
[INPUT] 4    0    [1    /1   ]  2.625115             1
[INPUT] 4    0    [1    /1   ]  0.72964472           1
nuclear repulsion = 0
number of shells = 22
number of NR pGTOs = 399
number of NR cGTOs = 88
basis = {'Cr': [[0, [41.45590127, 0.010332], [22.20089455, -0.091393], [12.37022616, 0.412444], [7.15443966, -0.722409], [3.63012556, 0.039693], [1.88942247, 0.321055], [1.04381355, 0.652182], [0.47307333, 0.264443], [0.22628807, -0.008646], [0.10750747, 0.012188], [0.05101028, -0.00242], [0.0242372, 0.001733]], [0, [41.45590127, -0.001971], [22.20089455, 0.019152], [12.37022616, -0.094562], [7.15443966, 0.178991], [3.63012556, -0.015716], [1.88942247, -0.084882], [1.04381355, -0.243744], [0.47307333, -0.214624], [0.22628807, 0.055092], [0.10750747, 0.415903], [0.05101028, 0.543473], [0.0242372, 0.170131]], [0, [41.45590127, -0.005985], [22.20089455, 0.069637], [12.37022616, -0.403654], [7.15443966, 0.899468], [3.63012556, -0.19655], [1.88942247, -1.358682], [1.04381355, -0.066602], [0.47307333, 0.748011], [0.22628807, 0.743168], [0.10750747, 0.120335], [0.05101028, -0.554574], [0.0242372, -0.284337]], [0, [41.45590127, -0.005431], [22.20089455, 0.075825], [12.37022616, -0.506871], [7.15443966, 1.314927], [3.63012556, -0.7377], [1.88942247, -2.271634], [1.04381355, 1.711851], [0.47307333, 1.720924], [0.22628807, -1.434003], [0.10750747, -1.046849], [0.05101028, 0.595081], [0.0242372, 0.606245]], [0, [0.0242372, 1.0]], [0, [0.01151614, 1.0]], [1, [28.88080716, -0.002973], [13.19380569, 0.044202], [7.25722596, -0.232476], [4.84342676, 0.167654], [2.76949909, 0.179744], [1.50719356, 0.46058], [0.72516508, 0.338218], [0.36385743, 0.097984], [0.16204617, 0.012145], [0.07447705, -0.000948], [0.03422994, 0.000821], [0.01573221, -0.00022]], [1, [28.88080716, 0.000536], [13.19380569, -0.009363], [7.25722596, 0.054752], [4.84342676, -0.042977], [2.76949909, -0.049244], [1.50719356, -0.128712], [0.72516508, -0.11682], [0.36385743, 0.044517], [0.16204617, 0.322192], [0.07447705, 0.482878], [0.03422994, 0.275764], [0.01573221, 0.025472]], [1, [28.88080716, -0.000428], [13.19380569, 0.034429], [7.25722596, -0.307446], [4.84342676, 0.24996], [2.76949909, 0.789151], [1.50719356, 0.129313], [0.72516508, -0.921684], [0.36385743, -0.378847], [0.16204617, 0.566809], [0.07447705, 0.440905], [0.03422994, 0.024535], [0.01573221, 0.005078]], [1, [28.88080716, 0.002227], [13.19380569, 0.046024], [7.25722596, -0.727345], [4.84342676, 1.251481], [2.76949909, 1.00182], [1.50719356, -1.701806], [0.72516508, -0.622978], [0.36385743, 1.581831], [0.16204617, -0.060905], [0.07447705, -0.667464], [0.03422994, -0.031147], [0.01573221, -0.01129]], [1, [0.01573221, 1.0]], [1, [0.00723058, 1.0]], [2, [46.50908408, 0.000358], [21.60133229, -0.010512], [11.03652449, 0.11118], [4.54288797, 0.164184], [2.18180243, 0.267436], [1.04009058, 0.310836], [0.48262909, 0.28353], [0.21570372, 0.173079], [0.10059873, 0.057279], [0.04653409, 0.00937]], [2, [46.50908408, 0.000725], [21.60133229, 0.005694], [11.03652449, -0.104091], [4.54288797, -0.217444], [2.18180243, -0.413534], [1.04009058, -0.07805], [0.48262909, 0.290464], [0.21570372, 0.417258], [0.10059873, 0.237439], [0.04653409, 0.051282]], [2, [46.50908408, -0.003236], [21.60133229, 0.00626], [11.03652449, 0.082765], [4.54288797, 0.409918], [2.18180243, 0.374551], [1.04009058, -0.692379], [0.48262909, -0.433198], [0.21570372, 0.307071], [0.10059873, 0.45679], [0.04653409, 0.105679]], [2, [0.04653409, 1.0]], [2, [0.02152533, 1.0]], [3, [2.951278, 1.0]], [3, [0.820301, 1.0]], [3, [0.22800079, 1.0]], [4, [2.625115, 1.0]], [4, [0.72964472, 1.0]]]}
ecp = {'Cr': [10, [[-1, [[], [[13.07675203, 14.0]], [[15.15807582, 1258.1555038], [4.62785686, -98.60998187], [15.41136599, -6552.46055066], [15.38690637, 5353.09061557]], [[5.24897308, 183.07452839]]]], [0, [[], [], [[9.77680844, -91901.2080948], [9.95980111, 96320.14803227], [8.62275214, 3928.3135917], [12.29288144, -10977.62459544], [18.41316592, -1741.60409682], [16.38541961, 4413.26493033]], []]], [1, [[], [], [[12.00099996, -22156.17142851], [11.46524435, 21551.07876111], [16.23852226, 3703.78784703], [18.43861108, -1424.18632323], [8.88877941, -1964.93568469], [7.52644784, 317.50498882]], []]], [2, [[], [], [[11.1066837, -5435.29666496], [8.49801115, 7350.69608766], [12.28065533, 2443.80334995], [8.1885354, -5401.76770998], [14.34306836, 3881.23075486], [15.24784181, -2855.87137953]], []]]]]}
CPU time:         3.59


******** <class 'pyscf.scf.rohf.ROHF'> flags ********
method = ROHF
initial guess = minao
damping factor = 0
level shift factor = 1000.0
DIIS = <class 'pyscf.scf.diis.CDIIS'>
DIIS start cycle = 1
DIIS space = 8
SCF tol = 1e-09
SCF gradient tol = None
max. SCF cycles = 50
direct_scf = True
direct_scf_tol = 1e-13
chkfile to save SCF result = /rc_scratch/bamu3429/tmpU0W2gf
max_memory 4000 MB (current use 165 MB)
num. doubly occ = 4  num. singly occ = 5
Set gradient conv threshold to 3.16228e-05
init E= -85.9985835516129
  HOMO = 499.778910762848  LUMO = 999.80148497561
cycle= 1 E= -85.9985835516129  delta_E= -2.84e-14  |g|= 3.27e-06  |ddm|= 2.32e-08
  HOMO = -0.221089237721881  LUMO = -0.198515024326118
Extra cycle  E= -85.9985835515017  delta_E= 1.11e-10  |g|= 6.91e-06  |ddm|= 5.06e-05
converged SCF energy = -85.9985835515017
**** MO energy ****
                Roothaan           | alpha              | beta
MO #1   energy= -3.67856597604655  | -3.86493274484732  | -3.49219920724577  occ= 2
MO #2   energy= -2.37712185457074  | -2.60593198414551  | -2.14831172499598  occ= 2
MO #3   energy= -2.37712174111524  | -2.60593171658872  | -2.14831176564176  occ= 2
MO #4   energy= -2.37712166323846  | -2.6059315331727   | -2.14831179330423  occ= 2
MO #5   energy= -0.221089274029522 | -0.64615721384814  | 0.20397876813239   occ= 1
MO #6   energy= -0.221089269398856 | -0.646157215122146 | 0.203978771295608  occ= 1
MO #7   energy= -0.22108925920474  | -0.646157173881817 | 0.203978775383575  occ= 1
MO #8   energy= -0.22108924081932  | -0.646157133021528 | 0.203978784552108  occ= 1
MO #9   energy= -0.221089237721881 | -0.646157145717492 | 0.20397878969669   occ= 1
MO #10  energy= -0.198515024326118 | -0.214725067896999 | -0.182304981057757 occ= 0
MO #11  energy= -0.110761572120469 | -0.116880188826707 | -0.104642955414347 occ= 0
MO #12  energy= -0.110761524436477 | -0.11688023429941  | -0.10464281457355  occ= 0
MO #13  energy= -0.110761491820093 | -0.116880265625919 | -0.104642718014443 occ= 0
MO #14  energy= -0.0720309660778948 | -0.0747397546555521 | -0.0693221775025916 occ= 0
MO #15  energy= -0.0499209793291445 | -0.051671644412966 | -0.0481703142453287 occ= 0
MO #16  energy= -0.0499209677890455 | -0.0516716568007363 | -0.0481702787773565 occ= 0
MO #17  energy= -0.0499209598755599 | -0.0516716652851464 | -0.0481702544659814 occ= 0
MO #18  energy= -0.0473964983696247 | -0.0484531784833411 | -0.046339917420796 occ= 0
MO #19  energy= -0.0473964936445158 | -0.048453173745933 | -0.0463399120154123 occ= 0
MO #20  energy= -0.0473964748078517 | -0.0484531559176109 | -0.0463398949030758 occ= 0
MO #21  energy= -0.0473964481976233 | -0.0484531302666542 | -0.0463398690178369 occ= 0
MO #22  energy= -0.0473964460322744 | -0.0484531281329036 | -0.0463398666537652 occ= 0
MO #23  energy= 0.0172133138108935 | 0.00634248987018518 | 0.0280841377515615 occ= 0
MO #24  energy= 0.0172133534131401 | 0.00634239461807834 | 0.028084312208203  occ= 0
MO #25  energy= 0.0172133805948299 | 0.00634232940394551 | 0.0280844317856597 occ= 0
MO #26  energy= 0.0526659059862866 | 0.0465785781591861 | 0.0587531575786386 occ= 0
MO #27  energy= 0.0526659169429924 | 0.0465785875560741 | 0.0587531723737534 occ= 0
MO #28  energy= 0.052665963690187  | 0.0465786236961472 | 0.0587532217388999 occ= 0
MO #29  energy= 0.0526660271179943 | 0.0465786751649907 | 0.0587532972297969 occ= 0
MO #30  energy= 0.0526660329876391 | 0.046578679357558  | 0.0587533021161071 occ= 0
MO #31  energy= 0.0787746227780028 | 0.0666081018925962 | 0.0909411436605651 occ= 0
MO #32  energy= 0.618785445089566  | 0.599843837944969  | 0.637727052234164  occ= 0
MO #33  energy= 0.618785452602717  | 0.59984384265406   | 0.637727062551378  occ= 0
MO #34  energy= 0.618785577741293  | 0.599843918225176  | 0.637727237257409  occ= 0
MO #35  energy= 0.61878564509932   | 0.599843959642361  | 0.63772733055628   occ= 0
MO #36  energy= 0.618785678816893  | 0.599843980068199  | 0.637727377565589  occ= 0
MO #37  energy= 0.618785857247652  | 0.599844089023516  | 0.637727625471788  occ= 0
MO #38  energy= 0.618785859176902  | 0.599844090218757  | 0.637727628135048  occ= 0
MO #39  energy= 0.720615448276595  | 0.662984404921632  | 0.778246545751479  occ= 0
MO #40  energy= 0.72061547954241   | 0.662984425211776  | 0.778246588797691  occ= 0
MO #41  energy= 0.720615610817739  | 0.662984509064658  | 0.778246756065232  occ= 0
MO #42  energy= 0.720615787598731  | 0.662984623418895  | 0.778246993682728  occ= 0
MO #43  energy= 0.720615805708477  | 0.662984634378412  | 0.778247012376559  occ= 0
MO #44  energy= 0.799893499358069  | 0.768917967965644  | 0.830869030750773  occ= 0
MO #45  energy= 1.48358333717867   | 1.42638845707697   | 1.54077821728037   occ= 0
MO #46  energy= 1.48358350965198   | 1.42638847773866   | 1.54077854156531   occ= 0
MO #47  energy= 1.4835836278499    | 1.42638849189402   | 1.54077876380578   occ= 0
MO #48  energy= 2.64340829763698   | 2.55334734880472   | 2.73346924646924   occ= 0
MO #49  energy= 2.64340830527569   | 2.55334735365394   | 2.73346925689745   occ= 0
MO #50  energy= 2.64340843448113   | 2.55334743732356   | 2.73346943163871   occ= 0
MO #51  energy= 2.64340850352854   | 2.55334748163323   | 2.73346952542385   occ= 0
MO #52  energy= 2.64340853829425   | 2.55334750410878   | 2.73346957247971   occ= 0
MO #53  energy= 2.64340872174315   | 2.55334762230019   | 2.7334698211861    occ= 0
MO #54  energy= 2.64340872371636   | 2.55334762356474   | 2.73346982386799   occ= 0
MO #55  energy= 3.15230965350691   | 3.11568295863949   | 3.18893634837433   occ= 0
MO #56  energy= 3.15230965579666   | 3.11568296029535   | 3.18893635129797   occ= 0
MO #57  energy= 3.15230983013509   | 3.11568308526256   | 3.18893657500762   occ= 0
MO #58  energy= 3.15230986526558   | 3.11568311056062   | 3.18893661997054   occ= 0
MO #59  energy= 3.15230993708871   | 3.11568316204472   | 3.1889367121327    occ= 0
MO #60  energy= 3.15231006562628   | 3.11568325443967   | 3.18893687681289   occ= 0
MO #61  energy= 3.15231007632475   | 3.11568326211023   | 3.18893689053928   occ= 0
MO #62  energy= 3.15231031127737   | 3.11568343085296   | 3.18893719170178   occ= 0
MO #63  energy= 3.15231031161825   | 3.11568343109823   | 3.18893719213827   occ= 0
MO #64  energy= 3.46225394249903   | 3.37197143313853   | 3.55253647305515   occ= 0
MO #65  energy= 3.46225394920065   | 3.37197144293795   | 3.55253647671033   occ= 0
MO #66  energy= 3.46225397970266   | 3.37197148976291   | 3.55253649016461   occ= 0
MO #67  energy= 3.46225401869208   | 3.3719715478514    | 3.55253651015555   occ= 0
MO #68  energy= 3.46225402363065   | 3.37197155610224   | 3.5525365112128    occ= 0
MO #69  energy= 4.46219695605484   | 4.40131807686385   | 4.52307583524591   occ= 0
MO #70  energy= 6.49652778679964   | 6.43369060254917   | 6.55936497105012   occ= 0
MO #71  energy= 6.49652784977726   | 6.43369075996789   | 6.55936493958665   occ= 0
MO #72  energy= 6.49652789283771   | 6.43369086771      | 6.55936491796544   occ= 0
MO #73  energy= 8.67668207175613   | 8.56987698690059   | 8.78348715661168   occ= 0
MO #74  energy= 8.67668207217457   | 8.56987698672195   | 8.78348715762722   occ= 0
MO #75  energy= 8.67668210732497   | 8.56987694355112   | 8.78348727109881   occ= 0
MO #76  energy= 8.67668211392054   | 8.56987693527492   | 8.78348729256614   occ= 0
MO #77  energy= 8.67668212735157   | 8.56987691973739   | 8.78348733496574   occ= 0
MO #78  energy= 8.67668215152575   | 8.56987688722723   | 8.78348741582427   occ= 0
MO #79  energy= 8.67668215307965   | 8.56987688576911   | 8.78348742039021   occ= 0
MO #80  energy= 11.4826156211492   | 11.4099342575752   | 11.5552969847232   occ= 0
MO #81  energy= 11.4826156211556   | 11.409934257544    | 11.5552969847673   occ= 0
MO #82  energy= 11.4826156226535   | 11.409934230039    | 11.5552970152679   occ= 0
MO #83  energy= 11.4826156227866   | 11.4099342290938   | 11.5552970164794   occ= 0
MO #84  energy= 11.4826156234825   | 11.4099342137885   | 11.5552970331764   occ= 0
MO #85  energy= 11.4826156240331   | 11.4099342047034   | 11.5552970433629   occ= 0
MO #86  energy= 11.4826156241917   | 11.4099342010616   | 11.5552970473217   occ= 0
MO #87  energy= 11.4826156255467   | 11.409934179579    | 11.5552970715144   occ= 0
MO #88  energy= 11.4826156255556   | 11.4099341794813   | 11.5552970716299   occ= 0
 ** Mulliken pop on meta-lowdin orthogonal AOs  **
 ** Mulliken pop  **
pop of  0Cr 3s        1.99991
pop of  0Cr 4s        0.00000
pop of  0Cr 5s        0.00009
pop of  0Cr 6s        0.00000
pop of  0Cr 7s        0.00000
pop of  0Cr 8s        0.00000
pop of  0Cr 3px       1.99986
pop of  0Cr 3py       1.99986
pop of  0Cr 3pz       1.99986
pop of  0Cr 4px       0.00007
pop of  0Cr 4py       0.00007
pop of  0Cr 4pz       0.00007
pop of  0Cr 5px       0.00006
pop of  0Cr 5py       0.00006
pop of  0Cr 5pz       0.00006
pop of  0Cr 6px       0.00001
pop of  0Cr 6py       0.00001
pop of  0Cr 6pz       0.00001
pop of  0Cr 7px       0.00000
pop of  0Cr 7py       0.00000
pop of  0Cr 7pz       0.00000
pop of  0Cr 8px       0.00000
pop of  0Cr 8py       0.00000
pop of  0Cr 8pz       0.00000
pop of  0Cr 3dxy      0.99964
pop of  0Cr 3dyz      0.99964
pop of  0Cr 3dz^2     0.99964
pop of  0Cr 3dxz      0.99964
pop of  0Cr 3dx2-y2    0.99964
pop of  0Cr 4dxy      0.00027
pop of  0Cr 4dyz      0.00027
pop of  0Cr 4dz^2     0.00027
pop of  0Cr 4dxz      0.00027
pop of  0Cr 4dx2-y2    0.00027
pop of  0Cr 5dxy      0.00002
pop of  0Cr 5dyz      0.00002
pop of  0Cr 5dz^2     0.00002
pop of  0Cr 5dxz      0.00002
pop of  0Cr 5dx2-y2    0.00002
pop of  0Cr 6dxy      0.00006
pop of  0Cr 6dyz      0.00006
pop of  0Cr 6dz^2     0.00006
pop of  0Cr 6dxz      0.00006
pop of  0Cr 6dx2-y2    0.00006
pop of  0Cr 7dxy      0.00001
pop of  0Cr 7dyz      0.00001
pop of  0Cr 7dz^2     0.00001
pop of  0Cr 7dxz      0.00001
pop of  0Cr 7dx2-y2    0.00001
pop of  0Cr 4fy^3     0.00000
pop of  0Cr 4fxyz     0.00000
pop of  0Cr 4fyz^2    0.00000
pop of  0Cr 4fz^3     0.00000
pop of  0Cr 4fxz^2    0.00000
pop of  0Cr 4fzx^2    0.00000
pop of  0Cr 4fx^3     0.00000
pop of  0Cr 5fy^3     0.00000
pop of  0Cr 5fxyz     0.00000
pop of  0Cr 5fyz^2    0.00000
pop of  0Cr 5fz^3     0.00000
pop of  0Cr 5fxz^2    0.00000
pop of  0Cr 5fzx^2    0.00000
pop of  0Cr 5fx^3     0.00000
pop of  0Cr 6fy^3     0.00000
pop of  0Cr 6fxyz     0.00000
pop of  0Cr 6fyz^2    0.00000
pop of  0Cr 6fz^3     0.00000
pop of  0Cr 6fxz^2    0.00000
pop of  0Cr 6fzx^2    0.00000
pop of  0Cr 6fx^3     0.00000
pop of  0Cr 5g-4      0.00000
pop of  0Cr 5g-3      0.00000
pop of  0Cr 5g-2      0.00000
pop of  0Cr 5g-1      0.00000
pop of  0Cr 5g 0      0.00000
pop of  0Cr 5g 1      0.00000
pop of  0Cr 5g 2      0.00000
pop of  0Cr 5g 3      0.00000
pop of  0Cr 5g 4      0.00000
pop of  0Cr 6g-4      0.00000
pop of  0Cr 6g-3      0.00000
pop of  0Cr 6g-2      0.00000
pop of  0Cr 6g-1      0.00000
pop of  0Cr 6g 0      0.00000
pop of  0Cr 6g 1      0.00000
pop of  0Cr 6g 2      0.00000
pop of  0Cr 6g 3      0.00000
pop of  0Cr 6g 4      0.00000
 ** Mulliken atomic charges  **
charge of  0Cr =      1.00000

******** <class 'pyscf.mcscf.mc1step.CASSCF'> flags ********
CAS (5e+0e, 6o), ncore = 4, nvir = 78
max_cycle_macro = 50
max_cycle_micro = 4
conv_tol = 1e-07
conv_tol_grad = None
orbital rotation max_stepsize = 0.02
augmented hessian ah_max_cycle = 30
augmented hessian ah_conv_tol = 1e-12
augmented hessian ah_linear dependence = 1e-14
augmented hessian ah_level shift = 0
augmented hessian ah_start_tol = 2.5
augmented hessian ah_start_cycle = 3
augmented hessian ah_grad_trust_region = 3
kf_trust_region = 3
kf_interval = 4
ci_response_space = 4
ci_grad_trust_region = 3
with_dep4 0
natorb = False
canonicalization = True
sorting_mo_energy = False
chkfile = ./scratch/122080/tmp8PMGAs
max_memory 4000 MB (current use 282 MB)
internal_rotation = False

******** SHCI flags ********
executable             = /home/bamu3429/softwares/dice/Dice
mpiprefix              = srun -n20
scratchDirectory       = ./scratch/122080
integralFile           = ./FCIDUMP
configFile             = ./input.dat
outputFile             = ./output.dat
maxIter                = 6
sweep_iter             = []
sweep_epsilon          = []
nPTiter                = 0
Stochastic             = True
fullrestart            = False
restart                = False
num_thrds              = 12
memory                 = None

CASCI E = -85.9985835515024  S^2 = 8.7500000
Set conv_tol_grad to 0.000316228
macro iter 1 (1 JK  1 micro), CASSCF E = -85.9985835515024  dE = 0  S^2 = 8.7500000
               |grad[o]|=5.53e-06  |grad[c]|= None  |ddm|=    0
1-step CASSCF converged in 1 macro (1 JK 1 micro) steps
CASSCF canonicalization
CASSCF energy = -85.9985835515024


--------------------------------------------------
                 ICMPSPT CALCULATION              
--------------------------------------------------

Perturbation type: MRLCC
With fully internally contracted scheme
With third order correction

Preparing necessary RDMs
......production of RDMs took       2.00 sec
Reading binary 4RDM from DICE
......reading the RDM took          1.11 sec

(GOOD) Trace 4RDM:    120.0 =    5*    4*    3*    2
(GOOD) Trace 3RDM:     60.0 =    5*    4*    3
(GOOD) Trace 2RDM:     20.0 =    5*    4
(GOOD) Trace 1RDM:      5.0 =    5

Producing the integrals
......production of INT took      86.44 sec

Energy_core =  -76.10539795
Energy      =  -85.99858355

WARNING: Have to use natural orbitals from CAASCF
         offdiagonal elements:    0.67990216

Basic ingredients written to int/
......savings of INGREDIENTS took      19.06 sec

Second-order:
perturber CCVV --        -0.107446344
perturber CCAV --        -0.050779868
perturber ACVV --        -0.160392140
perturber CCAA --        -0.023738389
perturber AAVV --        -0.084188101
perturber CAAV --        -0.093833898
perturber AAAV --        -0.000000000
perturber AAAC --        -0.000000034
Total:                   -0.520378775

Third-order:              0.002638183

Total PT       --        -0.517740591

