 &FCI NORB=9 ,NELEC=7 ,MS2=1,
  ORBSYM=1,1,1,1,1,1,1,1,1,
  ISYM=1,
 &END
  6.498460917701e-01    1  1  1  1
  2.928064846197e-02    2  1  2  1
  5.795647038435e-01    2  2  1  1
  6.293653773534e-01    2  2  2  2
  1.480880080080e-11    3  1  2  1
  2.928070632827e-02    3  1  3  1
  1.002800738528e-09    3  2  1  1
  1.828727382006e-09    3  2  2  2
  2.822049757113e-02    3  2  3  2
  5.795648192790e-01    3  3  1  1
  5.729236256434e-01    3  3  2  2
  1.815929709512e-09    3  3  3  2
  6.293638688897e-01    3  3  3  3
  2.294650219953e-02    4  1  1  1
  1.823956076620e-02    4  1  2  2
 -2.245512184055e-11    4  1  3  2
  1.823984442492e-02    4  1  3  3
  3.806223699605e-03    4  1  4  1
 -3.551295259971e-05    4  2  2  1
  1.034495946602e-06    4  2  3  1
  1.690489082455e-03    4  2  4  2
 -1.032432755999e-06    4  3  2  1
 -3.486744911258e-05    4  3  3  1
 -1.037886379370e-09    4  3  4  2
  1.690272517667e-03    4  3  4  3
  2.119493921038e-01    4  4  1  1
  1.985823594753e-01    4  4  2  2
 -5.279682600373e-09    4  4  3  2
  1.985834594493e-01    4  4  3  3
 -7.316357653533e-04    4  4  4  1
  2.485748110867e-01    4  4  4  4
  4.412961482555e-05    5  1  2  1
 -1.160464254850e-02    5  1  3  1
  2.303256008650e-06    5  1  4  2
 -6.924327979625e-04    5  1  4  3
  1.375338814718e-02    5  1  5  1
  5.100864430852e-04    5  2  1  1
  6.412904575470e-04    5  2  2  2
 -1.166535779347e-02    5  2  3  2
  5.474436139284e-04    5  2  3  3
  1.225883517183e-05    5  2  4  1
 -9.504037249014e-05    5  2  4  4
  1.319580125201e-02    5  2  5  2
 -1.514217029434e-01    5  3  1  1
 -1.615822602239e-01    5  3  2  2
  4.692117563618e-05    5  3  3  2
 -1.849124589674e-01    5  3  3  3
 -3.833861996695e-03    5  3  4  1
  2.419678791525e-02    5  3  4  4
 -4.728563182391e-04    5  3  5  2
  1.532825829138e-01    5  3  5  3
  7.453308165484e-06    5  4  2  1
 -2.377017461321e-03    5  4  3  1
 -1.068836242005e-05    5  4  4  2
  2.569597084958e-03    5  4  4  3
 -1.932538139168e-04    5  4  5  1
  5.283142180929e-03    5  4  5  4
  5.030827782148e-01    5  5  1  1
  4.781935936678e-01    5  5  2  2
 -1.130407581686e-04    5  5  3  2
  5.134036771976e-01    5  5  3  3
  1.763541786233e-02    5  5  4  1
  2.338379482810e-01    5  5  4  4
  3.020404250463e-04    5  5  5  2
 -9.659707883627e-02    5  5  5  3
  4.948206448968e-01    5  5  5  5
 -1.160440654016e-02    6  1  2  1
 -4.413017888040e-05    6  1  3  1
 -6.928189240446e-04    6  1  4  2
 -2.300946500609e-06    6  1  4  3
 -9.215134166014e-10    6  1  5  1
  9.985716213436e-07    6  1  5  4
  1.375384871039e-02    6  1  6  1
 -1.514215046671e-01    6  2  1  1
 -1.849120732293e-01    6  2  2  2
 -4.692307190318e-05    6  2  3  2
 -1.615808686930e-01    6  2  3  3
 -3.833885859461e-03    6  2  4  1
  2.419586405747e-02    6  2  4  4
 -4.728553651488e-04    6  2  5  2
  1.268937929538e-01    6  2  5  3
 -8.636073812128e-02    6  2  5  5
  1.532826455842e-01    6  2  6  2
 -5.100868022279e-04    6  3  1  1
 -5.474463294390e-04    6  3  2  2
 -1.166535578893e-02    6  3  3  2
 -6.412879032719e-04    6  3  3  3
 -1.225987228517e-05    6  3  4  1
  9.503198468014e-05    6  3  4  4
  1.319278632942e-02    6  3  5  2
  4.728551363386e-04    6  3  5  3
 -2.823520133805e-04    6  3  5  5
  4.728541175748e-04    6  3  6  2
  1.319622783140e-02    6  3  6  3
 -2.377191169651e-03    6  4  2  1
 -7.449571675003e-06    6  4  3  1
  2.570321292638e-03    6  4  4  2
  1.068095652567e-05    6  4  4  3
 -9.962448059979e-07    6  4  5  1
 -5.025147548715e-09    6  4  5  4
 -1.934705501444e-04    6  4  6  1
  5.283325574734e-03    6  4  6  4
 -5.134959775940e-09    6  5  1  1
 -1.130503580488e-04    6  5  2  2
  1.760475471080e-02    6  5  3  2
  1.130315231265e-04    6  5  3  3
 -3.445938153576e-10    6  5  4  1
 -1.114495578813e-09    6  5  4  4
 -5.118787515788e-03    6  5  5  2
 -9.832808467349e-06    6  5  5  3
  8.674930200743e-10    6  5  5  5
  9.856103155646e-06    6  5  6  2
 -5.118874120774e-03    6  5  6  3
  1.718869533948e-02    6  5  6  5
  5.030873992040e-01    6  6  1  1
  5.134100375577e-01    6  6  2  2
  1.130408845416e-04    6  6  3  2
  4.782010535425e-01    6  6  3  3
  1.763522449630e-02    6  6  4  1
  2.338347575252e-01    6  6  4  4
  2.823763611107e-04    6  6  5  2
 -8.636646056609e-02    6  6  5  3
  4.604440785635e-01    6  6  5  5
 -9.660535688622e-02    6  6  6  2
 -3.020666151453e-04    6  6  6  3
  2.436690392488e-10    6  6  6  5
  4.948224404938e-01    6  6  6  6
  4.699680251494e-02    7  1  1  1
  6.244186046342e-02    7  1  2  2
  4.849108408540e-09    7  1  3  2
  6.242603769249e-02    7  1  3  3
 -4.641932244712e-03    7  1  4  1
 -3.658726352814e-02    7  1  4  4
  2.637973215905e-04    7  1  5  2
 -7.475121953765e-02    7  1  5  3
  2.660908382570e-03    7  1  5  5
 -7.474514151986e-02    7  1  6  2
 -2.638022673207e-04    7  1  6  3
 -2.735918786394e-08    7  1  6  5
  2.674242130925e-03    7  1  6  6
  1.151832772857e-01    7  1  7  1
  1.008172434918e-02    7  2  2  1
  2.310617027145e-06    7  2  3  1
 -1.105591069735e-03    7  2  4  2
 -1.930511207953e-06    7  2  4  3
  1.436312415403e-05    7  2  5  1
  1.378781977983e-05    7  2  5  4
 -3.380702031361e-03    7  2  6  1
 -4.548117915205e-03    7  2  6  4
  2.870251337213e-02    7  2  7  2
 -2.293055272823e-06    7  3  2  1
  1.003703531014e-02    7  3  3  1
  1.911342060792e-06    7  3  4  2
 -1.095901372035e-03    7  3  4  3
 -3.406365288120e-03    7  3  5  1
 -4.506830281891e-03    7  3  5  4
 -1.443208254151e-05    7  3  6  1
 -1.365683187045e-05    7  3  6  4
 -5.500567890138e-08    7  3  7  2
  2.831671943263e-02    7  3  7  3
 -2.575064616799e-02    7  4  1  1
 -2.271016806001e-02    7  4  2  2
  1.990305064487e-09    7  4  3  2
 -2.270647849296e-02    7  4  3  3
 -4.210061285395e-03    7  4  4  1
  2.981953435464e-03    7  4  4  4
 -2.270045752677e-06    7  4  5  2
  4.256770020028e-04    7  4  5  3
 -2.245957541745e-02    7  4  5  5
  4.187093356469e-04    7  4  6  2
  2.291965430397e-06    7  4  6  3
  2.169928923489e-08    7  4  6  5
 -2.246513749195e-02    7  4  6  6
  1.914265876728e-03    7  4  7  1
  6.570091147477e-03    7  4  7  4
  2.636327510661e-05    7  5  2  1
 -6.999924717788e-03    7  5  3  1
  4.161371341400e-06    7  5  4  2
 -1.450241891706e-03    7  5  4  3
  2.045159428813e-03    7  5  5  1
 -8.447667413340e-04    7  5  5  4
  1.920353349905e-06    7  5  6  1
 -2.114666617235e-06    7  5  6  4
  2.990674571736e-05    7  5  7  2
 -5.707424497777e-03    7  5  7  3
  9.696081749943e-03    7  5  7  5
 -6.992585289202e-03    7  6  2  1
 -2.637968176370e-05    7  6  3  1
 -1.460417435722e-03    7  6  4  2
 -4.133659798781e-06    7  6  4  3
 -1.860912233307e-06    7  6  5  1
  2.108503347786e-06    7  6  5  4
  2.039168279532e-03    7  6  6  1
 -8.462803136554e-04    7  6  6  4
 -5.797607609641e-03    7  6  7  2
 -2.939243832541e-05    7  6  7  3
 -2.427929380044e-07    7  6  7  5
  9.760469260228e-03    7  6  7  6
  5.426236869482e-01    7  7  1  1
  4.988118863790e-01    7  7  2  2
 -3.763864912001e-08    7  7  3  2
  4.985846369438e-01    7  7  3  3
  1.593615717316e-02    7  7  4  1
  2.167282958803e-01    7  7  4  4
  3.177394024910e-04    7  7  5  2
 -9.290973678388e-02    7  7  5  3
  4.520542436147e-01    7  7  5  5
 -9.297617578739e-02    7  7  6  2
 -3.173614277479e-04    7  7  6  3
 -3.623364966231e-07    7  7  6  5
  4.521629361990e-01    7  7  6  6
  4.628430336952e-02    7  7  7  1
 -2.470057437362e-02    7  7  7  4
  5.218658889010e-01    7  7  7  7
 -1.839976368196e-01    8  1  1  1
 -1.608417583739e-01    8  1  2  2
  1.457801783667e-09    8  1  3  2
 -1.608526577796e-01    8  1  3  3
 -9.686272089428e-03    8  1  4  1
  1.683215001909e-02    8  1  4  4
 -3.841677397513e-04    8  1  5  2
  1.138770261131e-01    8  1  5  3
 -9.170586614858e-02    8  1  5  5
  1.138803360730e-01    8  1  6  2
  3.841640722631e-04    8  1  6  3
 -3.471624645498e-09    8  1  6  5
 -9.170578441747e-02    8  1  6  6
 -2.923088609850e-02    8  1  7  1
  4.016798957228e-03    8  1  7  4
 -7.822871787618e-02    8  1  7  7
  1.700198589344e-01    8  1  8  1
 -8.846151543828e-03    8  2  2  1
 -2.309191844695e-06    8  2  3  1
 -2.207719288860e-03    8  2  4  2
 -1.182366265486e-06    8  2  4  3
 -3.699404939576e-05    8  2  5  1
  9.353537812283e-06    8  2  5  4
  1.167874735747e-02    8  2  6  1
 -2.864711079358e-03    8  2  6  4
  8.832471862350e-03    8  2  7  2
 -1.188356962192e-06    8  2  7  3
  6.105775364811e-06    8  2  7  5
  4.848260542417e-04    8  2  7  6
  1.942608162202e-02    8  2  8  2
  2.321810258011e-06    8  3  2  1
 -8.881567639342e-03    8  3  3  1
  1.166048596136e-06    8  3  4  2
 -2.200904036808e-03    8  3  4  3
  1.165851181393e-02    8  3  5  1
 -2.831675175576e-03    8  3  5  4
  3.693899480765e-05    8  3  6  1
 -9.246350209850e-06    8  3  6  4
  1.139097608278e-06    8  3  7  2
  8.589111243011e-03    8  3  7  3
  5.270001655320e-04    8  3  7  5
 -5.823210518235e-06    8  3  7  6
 -4.323112186218e-09    8  3  8  2
  1.928346299500e-02    8  3  8  3
 -1.306153909154e-02    8  4  1  1
 -1.270348241191e-02    8  4  2  2
  1.070543972737e-09    8  4  3  2
 -1.270088107578e-02    8  4  3  3
  1.528113290343e-03    8  4  4  1
  2.797901228310e-03    8  4  4  4
 -3.748162938625e-05    8  4  5  2
  1.039410697747e-02    8  4  5  3
 -2.381868705214e-03    8  4  5  5
  1.038828228727e-02    8  4  6  2
  3.749883685637e-05    8  4  6  3
  1.613083673454e-08    8  4  6  5
 -2.386723203053e-03    8  4  6  6
 -5.492140855151e-03    8  4  7  1
 -2.341214478055e-03    8  4  7  4
 -3.683824285427e-03    8  4  7  7
  1.542003452315e-02    8  4  8  1
  4.588824054541e-03    8  4  8  4
 -5.001553822458e-05    8  5  2  1
  1.646532208579e-02    8  5  3  1
  3.910677472571e-06    8  5  4  2
 -1.097572765149e-03    8  5  4  3
 -5.741053377987e-03    8  5  5  1
 -2.895389929503e-03    8  5  5  4
 -2.857240956343e-06    8  5  6  1
 -1.623725694784e-06    8  5  6  4
 -7.808102569904e-07    8  5  7  2
  3.109491673900e-03    8  5  7  3
 -3.015419878470e-03    8  5  7  5
 -2.210710687065e-06    8  5  7  6
  1.635650266548e-05    8  5  8  2
 -4.531725266994e-03    8  5  8  3
  1.551480051231e-02    8  5  8  5
  1.647098305568e-02    8  6  2  1
  5.000156175012e-05    8  6  3  1
 -1.106415078606e-03    8  6  4  2
 -3.882731510542e-06    8  6  4  3
  2.903556744070e-06    8  6  5  1
  1.623548909509e-06    8  6  5  4
 -5.746042292618e-03    8  6  6  1
 -2.896513805593e-03    8  6  6  4
  3.094623035360e-03    8  6  7  2
  9.809392498068e-07    8  6  7  3
  1.887370770898e-06    8  6  7  5
 -2.969732148651e-03    8  6  7  6
 -4.520382116970e-03    8  6  8  2
 -1.629983077424e-05    8  6  8  3
 -1.040471662097e-07    8  6  8  5
  1.554613938153e-02    8  6  8  6
  2.922828030334e-02    8  7  1  1
  4.159360734779e-02    8  7  2  2
 -2.206334758447e-08    8  7  3  2
  4.144455126225e-02    8  7  3  3
 -7.840515520060e-04    8  7  4  1
 -3.442713088956e-02    8  7  4  4
  1.669827029905e-04    8  7  5  2
 -4.273801810659e-02    8  7  5  3
 -1.851744410392e-02    8  7  5  5
 -4.277307733867e-02    8  7  6  2
 -1.667507449085e-04    8  7  6  3
 -2.518789033573e-07    8  7  6  5
 -1.843952045381e-02    8  7  6  6
  4.976406636504e-02    8  7  7  1
  2.972930713316e-05    8  7  7  4
  1.134453765438e-02    8  7  7  7
 -4.358249049536e-02    8  7  8  1
 -8.849424580025e-03    8  7  8  4
  6.424127805504e-02    8  7  8  7
  6.050319350868e-01    8  8  1  1
  5.386984559669e-01    8  8  2  2
 -1.250724346555e-08    8  8  3  2
  5.386083430436e-01    8  8  3  3
  2.454379768936e-02    8  8  4  1
  2.243067085446e-01    8  8  4  4
  3.950007469190e-04    8  8  5  2
 -1.194946047043e-01    8  8  5  3
  4.903650556370e-01    8  8  5  5
 -1.195109544977e-01    8  8  6  2
 -3.948712313187e-04    8  8  6  3
 -1.563942758574e-07    8  8  6  5
  4.904157914062e-01    8  8  6  6
 -1.509170008193e-03    8  8  7  1
 -2.510557474385e-02    8  8  7  4
  4.954222667599e-01    8  8  7  7
 -1.772065103140e-01    8  8  8  1
 -1.153030812213e-02    8  8  8  4
  9.606810561205e-03    8  8  8  7
  6.047881632550e-01    8  8  8  8
 -4.863778207358e-02    9  1  1  1
 -4.013021583134e-02    9  1  2  2
 -5.983442476625e-10    9  1  3  2
 -4.012413334441e-02    9  1  3  3
 -4.769726594248e-05    9  1  4  1
 -1.687337556977e-02    9  1  4  4
 -9.618658288796e-05    9  1  5  2
  3.406105037519e-02    9  1  5  3
 -5.005634535779e-02    9  1  5  5
  3.406034877189e-02    9  1  6  2
  9.618941085068e-05    9  1  6  3
  8.752061451963e-09    9  1  6  5
 -5.005990539715e-02    9  1  6  6
 -3.255977693914e-02    9  1  7  1
 -9.953936329723e-04    9  1  7  4
 -4.514559917540e-02    9  1  7  7
  1.296239602387e-02    9  1  8  1
 -2.700796566191e-03    9  1  8  4
  2.663705493384e-02    9  1  8  7
 -3.456755574770e-02    9  1  8  8
  6.970747025013e-02    9  1  9  1
  3.843262537471e-05    9  2  2  1
 -1.747307883287e-06    9  2  3  1
  2.960824778783e-04    9  2  4  2
  5.112785911081e-07    9  2  4  3
 -1.072888060634e-05    9  2  5  1
 -1.357127326474e-06    9  2  5  4
  4.751409977113e-03    9  2  6  1
  5.931611366429e-04    9  2  6  4
 -8.032365246397e-03    9  2  7  2
 -1.212975972641e-06    9  2  7  3
 -1.450448367126e-05    9  2  7  5
  3.366059026500e-03    9  2  7  6
  6.174409739373e-05    9  2  8  2
  9.183888621531e-07    9  2  8  3
  5.030100428689e-06    9  2  8  5
 -2.239573405687e-03    9  2  8  6
  1.227389609446e-02    9  2  9  2
  1.735128178884e-06    9  3  2  1
  5.989013063120e-05    9  3  3  1
 -4.975946614899e-07    9  3  4  2
  2.927055039775e-04    9  3  4  3
  4.763437522788e-03    9  3  5  1
  5.734609286543e-04    9  3  5  4
  1.075921794650e-05    9  3  6  1
  1.300748704274e-06    9  3  6  4
  1.243216123783e-06    9  3  7  2
 -7.890633517034e-03    9  3  7  3
  3.334900600851e-03    9  3  7  5
  1.431796440881e-05    9  3  7  6
 -9.109726317861e-07    9  3  8  2
  1.420907932812e-04    9  3  8  3
 -2.236469931886e-03    9  3  8  5
 -5.080230429991e-06    9  3  8  6
 -4.396978910430e-09    9  3  9  2
  1.222893312149e-02    9  3  9  3
 -1.155873513712e-02    9  4  1  1
 -9.468756726311e-03    9  4  2  2
  3.814803892665e-09    9  4  3  2
 -9.469765701297e-03    9  4  3  3
 -2.247051271695e-03    9  4  4  1
 -6.445580262499e-03    9  4  4  4
  1.745886499911e-05    9  4  5  2
 -4.475248606534e-03    9  4  5  3
 -1.653922835079e-02    9  4  5  5
 -4.472010587700e-03    9  4  6  2
 -1.746059104593e-05    9  4  6  3
 -2.422350745646e-10    9  4  6  5
 -1.653691607879e-02    9  4  6  6
  6.656976422308e-03    9  4  7  1
  3.010473629849e-03    9  4  7  4
 -1.340265571848e-02    9  4  7  7
 -3.993620491469e-03    9  4  8  1
 -2.511440055127e-03    9  4  8  4
  7.475830060593e-03    9  4  8  7
 -1.486967664741e-02    9  4  8  8
  2.992030588928e-03    9  4  9  1
  3.029184428639e-03    9  4  9  4
 -2.105926259921e-05    9  5  2  1
  8.295644476872e-03    9  5  3  1
  1.153215377681e-06    9  5  4  2
 -2.144177860529e-04    9  5  4  3
 -5.249797945556e-03    9  5  5  1
 -5.480490443008e-04    9  5  5  4
 -2.769653819588e-06    9  5  6  1
  6.785444199697e-07    9  5  6  4
 -2.019524754918e-05    9  5  7  2
  5.007135174969e-03    9  5  7  3
 -1.170089867923e-03    9  5  7  5
 -1.017219251351e-06    9  5  7  6
  1.040268348813e-05    9  5  8  2
 -4.245097989884e-03    9  5  8  3
  3.008252880001e-03    9  5  8  5
  1.039994489103e-06    9  5  8  6
  6.237993040174e-06    9  5  9  2
 -9.003304056338e-04    9  5  9  3
  8.666732288447e-03    9  5  9  5
  8.293875331907e-03    9  6  2  1
  2.105780758923e-05    9  6  3  1
 -2.097199870996e-04    9  6  4  2
 -1.162045607668e-06    9  6  4  3
  2.736467741936e-06    9  6  5  1
 -6.562218908197e-07    9  6  5  4
 -5.246519074278e-03    9  6  6  1
 -5.490930254863e-04    9  6  6  4
  5.035694070349e-03    9  6  7  2
  2.000413820138e-05    9  6  7  3
  1.117288807878e-06    9  6  7  5
 -1.180927518975e-03    9  6  7  6
 -4.237533982493e-03    9  6  8  2
 -1.049089215943e-05    9  6  8  3
 -1.012151029323e-06    9  6  8  5
  3.004934597010e-03    9  6  8  6
 -9.059846608393e-04    9  6  9  2
 -6.186713023613e-06    9  6  9  3
  1.234299055565e-08    9  6  9  5
  8.660876271848e-03    9  6  9  6
 -9.548325100048e-02    9  7  1  1
 -9.417474093429e-02    9  7  2  2
  1.274076076652e-08    9  7  3  2
 -9.408097807466e-02    9  7  3  3
 -7.623660438993e-04    9  7  4  1
  2.271301943875e-02    9  7  4  4
 -2.663693405087e-04    9  7  5  2
  7.596287965189e-02    9  7  5  3
 -3.451798196723e-02    9  7  5  5
  7.599278749724e-02    9  7  6  2
  2.661980342294e-04    9  7  6  3
  1.331473256246e-07    9  7  6  5
 -3.456030806972e-02    9  7  6  6
 -6.457399254344e-02    9  7  7  1
  8.968606370518e-04    9  7  7  4
 -6.107774471486e-02    9  7  7  7
  7.609852338416e-02    9  7  8  1
  8.731981013231e-03    9  7  8  4
 -4.379414015493e-02    9  7  8  7
 -5.377013179180e-02    9  7  8  8
  2.081876339594e-02    9  7  9  1
 -6.480514400757e-03    9  7  9  4
  7.899763542222e-02    9  7  9  7
  2.616014197815e-02    9  8  1  1
  4.027439469699e-02    9  8  2  2
  1.030967407762e-08    9  8  3  2
  4.032988533794e-02    9  8  3  3
 -2.931177495473e-03    9  8  4  1
 -3.655273141605e-02    9  8  4  4
  2.139256732170e-04    9  8  5  2
 -6.113873313635e-02    9  8  5  3
 -7.765756295920e-03    9  8  5  5
 -6.112170191017e-02    9  8  6  2
 -2.140235264760e-04    9  8  6  3
  6.677133897060e-08    9  8  6  5
 -7.783090281141e-03    9  8  6  6
  7.430100608153e-02    9  8  7  1
  2.653444197603e-03    9  8  7  4
  1.957640777576e-03    9  8  7  7
 -4.205063710038e-02    9  8  8  1
 -7.015501623533e-03    9  8  8  4
  4.209309477683e-02    9  8  8  7
  6.081250094998e-05    9  8  8  8
 -1.001124199656e-02    9  8  9  1
  7.063442327756e-03    9  8  9  4
 -4.748562445419e-02    9  8  9  7
  7.154565683793e-02    9  8  9  8
  5.101930873553e-01    9  9  1  1
  4.674930784287e-01    9  9  2  2
 -6.382652709213e-09    9  9  3  2
  4.674578684510e-01    9  9  3  3
  1.440155902144e-02    9  9  4  1
  1.994856214441e-01    9  9  4  4
  3.222914763777e-04    9  9  5  2
 -9.504122131465e-02    9  9  5  3
  4.227421674191e-01    9  9  5  5
 -9.505512096053e-02    9  9  6  2
 -3.222230798513e-04    9  9  6  3
 -4.205966956484e-08    9  9  6  5
  4.227552062396e-01    9  9  6  6
  5.701246357365e-02    9  9  7  1
 -2.239673100257e-02    9  9  7  4
  4.747541018537e-01    9  9  7  7
 -7.882063868347e-02    9  9  8  1
 -2.988963023703e-03    9  9  8  4
  1.010549641058e-02    9  9  8  7
  4.654719059586e-01    9  9  8  8
 -4.647147050262e-02    9  9  9  1
 -1.178347297060e-02    9  9  9  4
 -5.758637188281e-02    9  9  9  7
  2.721165761383e-02    9  9  9  8
  4.712170009556e-01    9  9  9  9
 -3.528058606874e+00    1  1  0  0
 -3.463366604370e+00    2  2  0  0
 -1.469071015879e-09    3  2  0  0
 -3.463369499843e+00    3  3  0  0
 -9.445643908824e-02    4  1  0  0
 -1.455438706688e+00    4  4  0  0
 -2.714525363915e-03    5  2  0  0
  7.218610064644e-01    5  3  0  0
 -2.565370312519e+00    5  5  0  0
  7.218610511939e-01    6  2  0  0
  2.714532643639e-03    6  3  0  0
  5.277290062821e-09    6  5  0  0
 -2.565376799424e+00    6  6  0  0
 -2.279700476156e-01    7  1  0  0
  1.226262205484e-01    7  4  0  0
 -1.948196713397e+00    7  7  0  0
  7.561422611089e-01    8  1  0  0
  4.168189787026e-02    8  4  0  0
  4.446885850627e-01    8  7  0  0
 -2.150543585236e+00    8  8  0  0
  1.888016826872e-01    9  1  0  0
  6.411553674407e-02    9  4  0  0
 -1.276686286838e-01    9  7  0  0
 -1.634065362770e-01    9  8  0  0
 -1.450967288701e+00    9  9  0  0
    -49.326539842883   0  0  0  0
