 &FCI NORB=6 ,NELEC=11 ,MS2=1,
  ORBSYM=1,1,1,1,1,1,
  ISYM=1,
 &END
  1.005451922544e+00    1  1  1  1
  4.399676964595e-02    2  1  2  1
  9.174583832517e-01    2  2  1  1
  1.005451922544e+00    2  2  2  2
  3.442233198315e-05    3  1  2  1
  3.393186893608e-04    3  1  2  2
  3.047341369653e-02    3  1  3  1
 -6.884466396644e-05    3  2  1  1
 -1.696593446806e-04    3  2  2  1
 -7.359917644177e-04    3  2  3  1
  3.433639719334e-02    3  2  3  2
  9.445050951506e-01    3  3  1  1
  1.471983528836e-03    3  3  2  1
  9.367791281570e-01    3  3  2  2
  1.005451922544e+00    3  3  3  3
  8.528476396322e-05    4  1  2  1
 -2.598350543160e-04    4  1  2  2
 -8.035844370752e-03    4  1  3  1
  3.458844949444e-03    4  1  3  2
  2.131347284423e-03    4  1  3  3
  2.863120690482e-02    4  1  4  1
 -1.705695279265e-04    4  2  1  1
  1.299175271580e-04    4  2  2  1
  3.037252030448e-03    4  2  3  1
  8.084153643881e-03    4  2  3  2
 -1.441303555419e-02    4  2  3  3
 -2.175443855286e-03    4  2  4  1
  3.654734647197e-02    4  2  4  2
  1.607168874151e-02    4  3  1  1
 -6.496096979895e-03    4  3  2  1
 -1.616830728777e-02    4  3  2  2
 -1.065673642212e-03    4  3  3  1
  7.206517777096e-03    4  3  3  2
  2.161331552680e-03    4  3  4  1
  5.550786840228e-03    4  3  4  2
  3.827889672579e-02    4  3  4  3
  9.481895087341e-01    4  4  1  1
  4.350887710574e-03    4  4  2  1
  9.323572295997e-01    4  4  2  2
 -4.322663105361e-03    4  4  3  1
 -1.110157368046e-02    4  4  3  2
  9.288941290921e-01    4  4  3  3
  1.005451922544e+00    4  4  4  4
 -1.500477030606e-04    5  1  2  1
  3.684253777555e-04    5  1  2  2
  2.608813136942e-03    5  1  3  1
  6.833918962402e-03    5  1  3  2
  1.695627094288e-02    5  1  3  3
  9.074132216475e-04    5  1  4  1
 -5.761420602024e-03    5  1  4  2
  1.668679781568e-03    5  1  4  3
 -1.732469632064e-02    5  1  4  4
  3.840796351164e-02    5  1  5  1
  3.000954061213e-04    5  2  1  1
 -1.842126888773e-04    5  2  2  1
  6.890994628973e-03    5  2  3  1
 -2.475401992026e-03    5  2  3  2
  2.705968124888e-03    5  2  3  3
 -6.008055613538e-03    5  2  4  1
 -7.427657860329e-04    5  2  4  2
 -1.840901715453e-03    5  2  4  3
 -3.006063531009e-03    5  2  4  4
  2.911435619704e-03    5  2  5  1
  2.662884044767e-02    5  2  5  2
 -5.217626273885e-03    5  3  1  1
 -1.372491359138e-02    5  3  2  1
  4.950803984054e-03    5  3  2  2
 -8.478135471441e-03    5  3  3  1
 -1.352984062444e-03    5  3  3  2
  6.843914852448e-03    5  3  4  1
 -5.253874358201e-03    5  3  4  2
 -1.646474356146e-04    5  3  4  3
  2.668222898317e-04    5  3  4  4
 -1.991672208000e-03    5  3  5  1
 -5.585209172211e-03    5  3  5  2
  3.842064614328e-02    5  3  5  3
 -1.814826443296e-03    5  4  1  1
  1.176947621557e-02    5  4  2  1
  1.485531572066e-03    5  4  2  2
 -8.512594634016e-03    5  4  3  1
  7.094776073654e-03    5  4  3  2
  3.292948712289e-04    5  4  3  3
  8.662348160319e-03    5  4  4  1
  1.503031765504e-03    5  4  4  2
 -1.334111449154e-04    5  4  4  3
  9.357561150536e-04    5  4  5  1
 -7.291802541060e-03    5  4  5  2
 -4.830927312833e-05    5  4  5  3
  3.805190365635e-02    5  4  5  4
  9.286359955204e-01    5  5  1  1
 -5.822871239410e-03    5  5  2  1
  9.521942416483e-01    5  5  2  2
  3.983344415999e-03    5  5  3  1
  1.117041834442e-02    5  5  3  2
  9.286106302571e-01    5  5  3  3
 -1.871512230107e-03    5  5  4  1
  1.458360508212e-02    5  5  4  2
  9.661854625784e-05    5  5  4  3
  9.293481152310e-01    5  5  4  4
  1.005451922544e+00    5  5  5  5
 -3.434619251296e-04    6  1  1  1
 -1.554672769933e-03    6  1  2  1
  3.443621549406e-04    6  1  2  2
  1.207149348963e-05    6  1  3  1
  2.374145739286e-05    6  1  3  2
 -1.278202102623e-04    6  1  3  3
 -1.226047751930e-05    6  1  4  1
 -1.484097963426e-05    6  1  4  2
  2.006963671898e-04    6  1  4  3
 -4.461855520964e-04    6  1  4  4
  4.534514078299e-05    6  1  5  1
  2.053164709422e-05    6  1  5  2
  9.937097796240e-04    6  1  5  3
 -7.757617760515e-04    6  1  5  4
  5.731055325481e-04    6  1  5  5
  7.145710411736e-03    6  1  6  1
 -1.554672769933e-03    6  2  1  1
  3.443621549405e-04    6  2  2  1
  1.555073539757e-03    6  2  2  2
  2.374145739286e-05    6  2  3  1
  1.078702292419e-05    6  2  3  2
 -2.381230120284e-04    6  2  3  3
 -1.484097963426e-05    6  2  4  1
  1.829537352764e-05    6  2  4  2
 -1.182265917123e-03    6  2  4  3
 -4.862738311945e-04    6  2  4  4
  2.053164709422e-05    6  2  5  1
 -5.970701661123e-06    6  2  5  2
  1.258877836749e-04    6  2  5  3
  2.830971486327e-04    6  2  5  4
  7.239960733990e-04    6  2  5  5
  7.145710411736e-03    6  2  6  2
  1.207149348963e-05    6  3  1  1
  2.374145739285e-05    6  3  2  1
  1.078702292418e-05    6  3  2  2
 -1.278202102623e-04    6  3  3  1
 -2.381230120284e-04    6  3  3  2
  1.521887841727e-03    6  3  3  3
  2.006963671899e-04    6  3  4  1
 -1.182265917123e-03    6  3  4  2
 -2.835529853619e-04    6  3  4  3
 -6.225020009259e-04    6  3  4  4
  9.937097796242e-04    6  3  5  1
  1.258877836749e-04    6  3  5  2
  2.602695993104e-04    6  3  5  3
 -3.258656413972e-06    6  3  5  4
 -9.222443572149e-04    6  3  5  5
  7.145710411735e-03    6  3  6  3
 -1.226047751926e-05    6  4  1  1
 -1.484097963425e-05    6  4  2  1
  1.829537352768e-05    6  4  2  2
  2.006963671899e-04    6  4  3  1
 -1.182265917123e-03    6  4  3  2
 -2.835529853618e-04    6  4  3  3
 -4.461855520965e-04    6  4  4  1
 -4.862738311945e-04    6  4  4  2
 -6.225020009258e-04    6  4  4  3
  1.067211305150e-03    6  4  4  4
 -7.757617760516e-04    6  4  5  1
  2.830971486327e-04    6  4  5  2
 -3.258656413986e-06    6  4  5  3
 -7.585072450785e-04    6  4  5  4
 -7.896932157968e-04    6  4  5  5
  7.145710411735e-03    6  4  6  4
  4.534514078297e-05    6  5  1  1
  2.053164709422e-05    6  5  2  1
 -5.970701661141e-06    6  5  2  2
  9.937097796242e-04    6  5  3  1
  1.258877836749e-04    6  5  3  2
  2.602695993103e-04    6  5  3  3
 -7.757617760516e-04    6  5  4  1
  2.830971486327e-04    6  5  4  2
 -3.258656413982e-06    6  5  4  3
 -7.585072450785e-04    6  5  4  4
  5.731055325481e-04    6  5  5  1
  7.239960733990e-04    6  5  5  2
 -9.222443572150e-04    6  5  5  3
 -7.896932157969e-04    6  5  5  4
  4.588632066463e-04    6  5  5  5
  7.145710411735e-03    6  5  6  5
  3.647682036382e-01    6  6  1  1
  3.647682036382e-01    6  6  2  2
  3.647682036382e-01    6  6  3  3
  3.647682036382e-01    6  6  4  4
  3.647682036382e-01    6  6  5  5
  2.793033282227e-01    6  6  6  6
 -9.175664908483e+00    1  1  0  0
 -9.175664908483e+00    2  2  0  0
 -9.175664908483e+00    3  3  0  0
 -9.175664908483e+00    4  4  0  0
 -9.175664908483e+00    5  5  0  0
 -3.855820269445e+00    6  6  0  0
   -146.268111309189   0  0  0  0
