 &FCI NORB=6 ,NELEC=11 ,MS2=1,
  ORBSYM=1,1,1,1,1,1,
  ISYM=1,
 &END
  1.004490524185e+00    1  1  1  1
  4.302227439280e-02    2  1  2  1
  9.184459753992e-01    2  2  1  1
  1.004490524185e+00    2  2  2  2
 -1.036623438617e-03    3  1  2  1
  2.633557332492e-03    3  1  2  2
  2.379786893362e-02    3  1  3  1
  2.073246877234e-03    3  2  1  1
 -1.316778666241e-03    3  2  2  1
  1.089843387411e-03    3  2  3  1
  4.186533652028e-02    3  2  3  2
  9.568947863176e-01    3  3  1  1
 -2.179686774822e-03    3  3  2  1
  9.207598511443e-01    3  3  2  2
  1.004490524185e+00    3  3  3  3
 -1.368802695453e-03    4  1  2  1
  2.565667835884e-03    4  1  2  2
 -1.168500968996e-03    4  1  3  1
 -1.052119460595e-03    4  1  3  2
 -1.270697289277e-02    4  1  3  3
  3.892901367264e-02    4  1  4  1
  2.737605390905e-03    4  2  1  1
 -1.282833917941e-03    4  2  2  1
  3.637904547245e-03    4  2  3  1
 -2.039804337654e-03    4  2  3  2
  4.585301979563e-03    4  2  3  3
 -4.360782578577e-03    4  2  4  1
  2.707573894075e-02    4  2  4  2
  2.337001937992e-03    4  3  1  1
 -2.585785086650e-03    4  3  2  1
  4.079608675309e-03    4  3  2  2
  6.353486446383e-03    4  3  3  1
 -2.292650989781e-03    4  3  3  2
  5.199367414427e-04    4  3  4  1
  8.750369807599e-03    4  3  4  2
  3.699386501488e-02    4  3  4  3
  9.266324968396e-01    4  4  1  1
  8.721565157159e-03    4  4  2  1
  9.503390463034e-01    4  4  2  2
 -1.039873482876e-03    4  4  3  1
 -1.750073961520e-02    4  4  3  2
  9.305027941551e-01    4  4  3  3
  1.004490524185e+00    4  4  4  4
 -1.523820253323e-03    5  1  2  1
  6.485055853921e-03    5  1  2  2
  6.237739340692e-03    5  1  3  1
  5.180953087031e-03    5  1  3  2
 -2.284086203971e-03    5  1  3  3
 -5.304171030873e-05    5  1  4  1
  6.966367755067e-03    5  1  4  2
  1.360869750810e-02    5  1  4  3
 -4.200969649950e-03    5  1  4  4
  3.537357465092e-02    5  1  5  1
  3.047640506644e-03    5  2  1  1
 -3.242527926959e-03    5  2  2  1
  1.243743150460e-03    5  2  3  1
 -4.920582380477e-03    5  2  3  2
 -4.091690756066e-03    5  2  3  3
  9.471739760442e-03    5  2  4  1
  1.339321354442e-03    5  2  4  2
  6.131909831582e-03    5  2  4  3
  1.044050249421e-03    5  2  4  4
  3.270939191166e-03    5  2  5  1
  2.915938179615e-02    5  2  5  2
 -1.247547868138e-02    5  3  1  1
 -6.424696237492e-03    5  3  2  1
  9.841164760958e-03    5  3  2  2
  1.142043101986e-03    5  3  3  1
  2.045845378034e-03    5  3  3  2
 -1.206616862205e-02    5  3  4  1
  1.579667780641e-03    5  3  4  2
 -1.286279644133e-03    5  3  4  3
  2.634313920428e-03    5  3  4  4
  7.968419248001e-04    5  3  5  1
 -7.713746368982e-03    5  3  5  2
  3.846566118120e-02    5  3  5  3
  1.060834206183e-04    5  4  1  1
 -1.643810751551e-02    5  4  2  1
 -2.678642708884e-03    5  4  2  2
 -1.542528886046e-03    5  4  3  1
 -7.711577612221e-03    5  4  3  2
  2.572559288267e-03    5  4  3  3
  2.100484824975e-03    5  4  4  1
 -5.220251247108e-04    5  4  4  2
 -1.317156960214e-03    5  4  4  3
 -5.070652528441e-03    5  4  5  1
  3.661453685234e-03    5  4  5  2
  3.208305306650e-03    5  4  5  3
  3.812411402171e-02    5  4  5  4
  9.337433748830e-01    5  5  1  1
 -6.541878382337e-03    5  5  2  1
  9.461717605926e-01    5  5  2  2
 -1.593683849592e-03    5  5  3  1
  1.542749273797e-02    5  5  3  2
  9.275592018225e-01    5  5  3  3
  1.014130505688e-02    5  5  4  1
 -7.322907370469e-03    5  5  4  2
 -6.416610613300e-03    5  5  4  3
  9.282422961414e-01    5  5  4  4
  1.004490524185e+00    5  5  5  5
  2.615875215206e-04    6  1  1  1
 -1.483310397262e-03    6  1  2  1
 -6.970607252209e-05    6  1  2  2
  1.775470803431e-04    6  1  3  1
  1.893277438479e-04    6  1  3  2
  9.683177698490e-05    6  1  3  3
  3.635377642577e-04    6  1  4  1
  1.926110151512e-04    6  1  4  2
  4.844638078389e-04    6  1  4  3
 -7.923941714858e-04    6  1  4  4
  3.933698315446e-04    6  1  5  1
  4.600855679831e-04    6  1  5  2
  1.044173144249e-04    6  1  5  3
  9.981829262981e-04    6  1  5  4
  5.036809455022e-04    6  1  5  5
  7.034251991456e-03    6  1  6  1
 -1.483310397261e-03    6  2  1  1
 -6.970607252206e-05    6  2  2  1
  1.606574297540e-03    6  2  2  2
  1.893277438481e-04    6  2  3  1
 -2.171697973151e-05    6  2  3  2
 -1.319249135976e-03    6  2  3  3
  1.926110151511e-04    6  2  4  1
  9.826838281225e-06    6  2  4  2
  3.056694382263e-04    6  2  4  3
  7.383725279272e-04    6  2  4  4
  4.600855679831e-04    6  2  5  1
  2.349804602270e-05    6  2  5  2
  6.993502353471e-04    6  2  5  3
 -1.267781518462e-04    6  2  5  4
  4.576127077705e-04    6  2  5  5
  7.034251991456e-03    6  2  6  2
  1.775470803431e-04    6  3  1  1
  1.893277438479e-04    6  3  2  1
 -2.171697973149e-05    6  3  2  2
  9.683177698498e-05    6  3  3  1
 -1.319249135976e-03    6  3  3  2
 -1.491415989419e-04    6  3  3  3
  4.844638078389e-04    6  3  4  1
  3.056694382264e-04    6  3  4  2
  6.458410343893e-04    6  3  4  3
  9.888732558511e-04    6  3  4  4
  1.044173144250e-04    6  3  5  1
  6.993502353472e-04    6  3  5  2
 -6.308024477960e-04    6  3  5  3
  2.948474782893e-04    6  3  5  4
 -9.955617575207e-04    6  3  5  5
  7.034251991455e-03    6  3  6  3
  3.635377642577e-04    6  4  1  1
  1.926110151512e-04    6  4  2  1
  9.826838281225e-06    6  4  2  2
  4.844638078389e-04    6  4  3  1
  3.056694382264e-04    6  4  3  2
  6.458410343893e-04    6  4  3  3
 -7.923941714860e-04    6  4  4  1
  7.383725279271e-04    6  4  4  2
  9.888732558513e-04    6  4  4  3
 -3.123934891679e-04    6  4  4  4
  9.981829262982e-04    6  4  5  1
 -1.267781518462e-04    6  4  5  2
  2.948474782892e-04    6  4  5  3
 -5.818227745403e-04    6  4  5  4
 -7.068121477603e-04    6  4  5  5
  7.034251991455e-03    6  4  6  4
  3.933698315446e-04    6  5  1  1
  4.600855679831e-04    6  5  2  1
  2.349804602271e-05    6  5  2  2
  1.044173144250e-04    6  5  3  1
  6.993502353472e-04    6  5  3  2
 -6.308024477960e-04    6  5  3  3
  9.981829262982e-04    6  5  4  1
 -1.267781518462e-04    6  5  4  2
  2.948474782892e-04    6  5  4  3
 -5.818227745402e-04    6  5  4  4
  5.036809455024e-04    6  5  5  1
  4.576127077704e-04    6  5  5  2
 -9.955617575209e-04    6  5  5  3
 -7.068121477603e-04    6  5  5  4
  7.957573447690e-04    6  5  5  5
  7.034251991455e-03    6  5  6  5
  3.623659655312e-01    6  6  1  1
  3.623659655312e-01    6  6  2  2
  3.623659655312e-01    6  6  3  3
  3.623659655312e-01    6  6  4  4
  3.623659655312e-01    6  6  5  5
  2.780736049589e-01    6  6  6  6
 -9.173624781861e+00    1  1  0  0
 -9.173624781861e+00    2  2  0  0
 -9.173624781861e+00    3  3  0  0
 -9.173624781861e+00    4  4  0  0
 -9.173624781861e+00    5  5  0  0
 -3.832734074053e+00    6  6  0  0
   -146.256483777754   0  0  0  0
