#INFO: **** input file is /projects/bamu3429/BENCHMARK/fresh_atoms/MRPT/vqz/atoms/Cu_0/mrpt.py ****
import json
from pyscf import gto,scf,mcscf, fci, lo, ci, cc
from pyscf.scf import ROHF, UHF,ROKS
import numpy as np
import pandas as pd

# THIS IS WERE IT STARTS ====================================

df=json.load(open("../../../trail.json"))

spins={'Sc':1, 'Ti':2, 'V':3, 'Cr':6, 'Mn':5, 'Fe':4, 'Cu':1}

nd={'Sc':(1,0), 'Ti':(2,0), 'V':(3,0), 'Cr':(5,0), 'Mn':(5,0), 'Fe':(5,1), 'Cu':(5,5)}

cas={'Sc':3, 'Ti':4, 'V':5, 'Cr':6, 'Mn':7, 'Fe':8, 'Cu':11}

datacsv={}
for nm in ['atom','charge','method','basis','pseudopotential','hf',
           'totalenergy','totalenergy-stocherr','totalenergy-syserr']:
  datacsv[nm]=[]

basis='vqz'
el='Cu'
charge=0

mol=gto.Mole()
mol.ecp={}
mol.basis={}
mol.ecp[el]=gto.basis.parse_ecp(df[el]['ecp'])
mol.basis[el]=gto.basis.parse(df[el][basis])
mol.charge=charge
if el == 'Cr' or el == 'Cu':
  mol.spin=spins[el]-charge
else:
  mol.spin=spins[el]+charge
mol.build(atom="%s 0. 0. 0."%el,verbose=4)

m=ROHF(mol)
m.level_shift=1000.0
dm=m.from_chk("../../../../HF/atoms/"+el+basis+str(charge)+".chk")
hf=m.kernel(dm)
m.analyze()

from pyscf.shciscf import shci
mc = shci.SHCISCF(m, 6, cas[el]-charge)
#mc.fcisolver.conv_tol = 1e-14
mc.fcisolver.mpiprefix="mpirun -np 28"
mc.fcisolver.num_thrds=12
mc.verbose = 4
cas=mc.kernel()[0]
 
from pyscf.icmpspt import icmpspt
pt=icmpspt.icmpspt(mc,rdmM=500, PTM=1000,\
                          pttype="MRLCC",\
                          third_order=True,\
                          fully_ic=True,\
                          do_dm4=True)

datacsv['atom'].append(el)
datacsv['charge'].append(charge)
datacsv['method'].append('MRPT')
datacsv['basis'].append(basis)
datacsv['pseudopotential'].append('trail')
datacsv['hf'].append(hf)
datacsv['totalenergy'].append(cas+pt)
datacsv['totalenergy-stocherr'].append(0.0)
datacsv['totalenergy-syserr'].append(0.0)
pd.DataFrame(datacsv).to_csv(el+".csv",index=False)

#INFO: ******************** input file end ********************


System: ('Linux', 'bnode0308.rc.int.colorado.edu', '3.10.0-514.41.1.el7.x86_64', '#1 SMP Wed Jan 17 10:26:16 EST 2018', 'x86_64', 'x86_64')  Threads 1
Python 2.7.11 (default, Mar 22 2016, 01:42:54) 
[GCC Intel(R) C++ gcc 4.8 mode]
numpy 1.11.1  scipy 0.17.1
Date: Mon Mar 26 16:19:38 2018
PySCF version 1.4b
PySCF path  /projects/bamu3429/softwares/pyscf/pyscf
GIT ORIG_HEAD a007ed0a2fbe03d40db097068519a89db937d194
GIT HEAD      ref: refs/heads/dev
GIT dev branch  c61da64dc121f43448ee07e62e4d3a4eb5ddcda8

[INPUT] VERBOSE 4
[INPUT] num atoms = 1
[INPUT] num electrons = 19
[INPUT] charge = 0
[INPUT] spin (= nelec alpha-beta = 2S) = 1
[INPUT] symmetry False subgroup None
[INPUT]  1 Cu     0.000000000000   0.000000000000   0.000000000000 AA    0.000000000000   0.000000000000   0.000000000000 Bohr
[INPUT] ---------------- BASIS SET ---------------- 
[INPUT] l, kappa, [nprim/nctr], expnt,             c_1 c_2 ...
[INPUT] Cu
[INPUT] 0    0    [12   /1   ]  56.69692001       0.003858
                                20.1703448        -1.511163
                                16.89311889       5.262467
                                14.81117613       -4.140408
                                6.02025146        0.066973
                                2.45829434        0.59039
                                1.29773244        0.435
                                0.73258474        0.171005
                                0.2960966         0.014654
                                0.13350445        -0.001059
                                0.05975279        0.002343
                                0.0277617         7.2e-05
[INPUT] 0    0    [12   /1   ]  56.69692001       -0.000329
                                20.1703448        0.271255
                                16.89311889       -0.991333
                                14.81117613       0.80309
                                6.02025146        -0.009798
                                2.45829434        -0.162788
                                1.29773244        -0.157463
                                0.73258474        -0.146178
                                0.2960966         0.068557
                                0.13350445        0.45286
                                0.05975279        0.4989
                                0.0277617         0.13834
[INPUT] 0    0    [12   /1   ]  56.69692001       -0.002551
                                20.1703448        1.12923
                                16.89311889       -4.208771
                                14.81117613       3.504395
                                6.02025146        -0.310068
                                2.45829434        -0.948573
                                1.29773244        0.107692
                                0.73258474        0.283225
                                0.2960966         0.768789
                                0.13350445        0.404068
                                0.05975279        -0.49902
                                0.0277617         -0.540161
[INPUT] 0    0    [12   /1   ]  56.69692001       0.007574
                                20.1703448        -2.35403
                                16.89311889       8.801928
                                14.81117613       -7.424941
                                6.02025146        1.124887
                                2.45829434        1.860663
                                1.29773244        -1.702448
                                0.73258474        -0.943294
                                0.2960966         0.405131
                                0.13350445        1.184629
                                0.05975279        -0.32669
                                0.0277617         -0.642304
[INPUT] 0    0    [12   /1   ]  56.69692001       0.007778
                                20.1703448        -3.004154
                                16.89311889       12.239766
                                14.81117613       -11.033489
                                6.02025146        3.580468
                                2.45829434        -0.483578
                                1.29773244        -3.918947
                                0.73258474        3.017896
                                0.2960966         1.202344
                                0.13350445        -1.805167
                                0.05975279        -0.196904
                                0.0277617         0.841489
[INPUT] 0    0    [1    /1   ]  0.0277617            1
[INPUT] 0    0    [1    /1   ]  0.01289834           1
[INPUT] 1    0    [12   /1   ]  84.11621248       0.00021
                                41.67010486       -0.003354
                                20.84027636       0.054507
                                13.1175259        -0.185677
                                7.96834211        0.1136
                                4.08681185        0.286879
                                2.29416473        0.386568
                                1.21038981        0.304256
                                0.60503887        0.104511
                                0.23373223        0.008916
                                0.0905483         -0.000333
                                0.03498335        0.000208
[INPUT] 1    0    [12   /1   ]  84.11621248       4e-06
                                41.67010486       0.000359
                                20.84027636       -0.009409
                                13.1175259        0.03575
                                7.96834211        -0.025333
                                4.08681185        -0.064167
                                2.29416473        -0.086609
                                1.21038981        -0.086359
                                0.60503887        0.027529
                                0.23373223        0.324015
                                0.0905483         0.541358
                                0.03498335        0.260105
[INPUT] 1    0    [12   /1   ]  84.11621248       -9.7e-05
                                41.67010486       -0.001093
                                20.84027636       0.054854
                                13.1175259        -0.302416
                                7.96834211        0.3704
                                4.08681185        0.7815
                                2.29416473        -0.133515
                                1.21038981        -0.829877
                                0.60503887        -0.276498
                                0.23373223        0.679878
                                0.0905483         0.342509
                                0.03498335        0.000334
[INPUT] 1    0    [12   /1   ]  84.11621248       0.000342
                                41.67010486       -0.003336
                                20.84027636       0.098476
                                13.1175259        -0.655108
                                7.96834211        1.275801
                                4.08681185        0.700436
                                2.29416473        -1.674683
                                1.21038981        -0.445629
                                0.60503887        1.497855
                                0.23373223        -0.162223
                                0.0905483         -0.632066
                                0.03498335        0.018744
[INPUT] 1    0    [12   /1   ]  84.11621248       0.004681
                                41.67010486       -0.030582
                                20.84027636       0.124236
                                13.1175259        0.21778
                                7.96834211        -1.536679
                                4.08681185        1.170732
                                2.29416473        0.932627
                                1.21038981        -1.845524
                                0.60503887        0.707649
                                0.23373223        0.494903
                                0.0905483         -0.575064
                                0.03498335        0.021878
[INPUT] 1    0    [1    /1   ]  0.03498335           1
[INPUT] 1    0    [1    /1   ]  0.01351582           1
[INPUT] 2    0    [10   /1   ]  85.06963135       0.000306
                                37.22826442       -0.00619
                                15.61164981       0.135912
                                9.50636668        0.057336
                                5.30208049        0.240495
                                2.49612499        0.317037
                                1.13949453        0.29791
                                0.51100337        0.208077
                                0.230497          0.090388
                                0.11275594        0.026692
[INPUT] 2    0    [10   /1   ]  85.06963135       -4e-05
                                37.22826442       0.005773
                                15.61164981       -0.159536
                                9.50636668        -0.06682
                                5.30208049        -0.377892
                                2.49612499        -0.225348
                                1.13949453        0.197365
                                0.51100337        0.40543
                                0.230497          0.287219
                                0.11275594        0.134596
[INPUT] 2    0    [10   /1   ]  85.06963135       0.000844
                                37.22826442       0.001909
                                15.61164981       -0.161123
                                9.50636668        -0.138816
                                5.30208049        -0.495349
                                2.49612499        0.338929
                                1.13949453        0.642294
                                0.51100337        -0.062501
                                0.230497          -0.424292
                                0.11275594        -0.330264
[INPUT] 2    0    [10   /1   ]  85.06963135       0.004172
                                37.22826442       -0.012359
                                15.61164981       -0.197125
                                9.50636668        -0.584626
                                5.30208049        0.008748
                                2.49612499        1.205337
                                1.13949453        -0.519891
                                0.51100337        -0.635552
                                0.230497          0.306963
                                0.11275594        0.434075
[INPUT] 2    0    [1    /1   ]  0.11275594           1
[INPUT] 2    0    [1    /1   ]  0.05515864           1
[INPUT] 3    0    [1    /1   ]  6.93543              1
[INPUT] 3    0    [1    /1   ]  2.30775              1
[INPUT] 3    0    [1    /1   ]  0.767897             1
[INPUT] 3    0    [1    /1   ]  0.25551545           1
[INPUT] 4    0    [1    /1   ]  6.503244             1
[INPUT] 4    0    [1    /1   ]  2.204905             1
[INPUT] 4    0    [1    /1   ]  0.74756629           1
[INPUT] 5    0    [1    /1   ]  5.193885             1
[INPUT] 5    0    [1    /1   ]  1.76097081           1
nuclear repulsion = 0
number of shells = 29
number of NR pGTOs = 535
number of NR cGTOs = 135
basis = {'Cu': [[0, [56.69692001, 0.003858], [20.1703448, -1.511163], [16.89311889, 5.262467], [14.81117613, -4.140408], [6.02025146, 0.066973], [2.45829434, 0.59039], [1.29773244, 0.435], [0.73258474, 0.171005], [0.2960966, 0.014654], [0.13350445, -0.001059], [0.05975279, 0.002343], [0.0277617, 7.2e-05]], [0, [56.69692001, -0.000329], [20.1703448, 0.271255], [16.89311889, -0.991333], [14.81117613, 0.80309], [6.02025146, -0.009798], [2.45829434, -0.162788], [1.29773244, -0.157463], [0.73258474, -0.146178], [0.2960966, 0.068557], [0.13350445, 0.45286], [0.05975279, 0.4989], [0.0277617, 0.13834]], [0, [56.69692001, -0.002551], [20.1703448, 1.12923], [16.89311889, -4.208771], [14.81117613, 3.504395], [6.02025146, -0.310068], [2.45829434, -0.948573], [1.29773244, 0.107692], [0.73258474, 0.283225], [0.2960966, 0.768789], [0.13350445, 0.404068], [0.05975279, -0.49902], [0.0277617, -0.540161]], [0, [56.69692001, 0.007574], [20.1703448, -2.35403], [16.89311889, 8.801928], [14.81117613, -7.424941], [6.02025146, 1.124887], [2.45829434, 1.860663], [1.29773244, -1.702448], [0.73258474, -0.943294], [0.2960966, 0.405131], [0.13350445, 1.184629], [0.05975279, -0.32669], [0.0277617, -0.642304]], [0, [56.69692001, 0.007778], [20.1703448, -3.004154], [16.89311889, 12.239766], [14.81117613, -11.033489], [6.02025146, 3.580468], [2.45829434, -0.483578], [1.29773244, -3.918947], [0.73258474, 3.017896], [0.2960966, 1.202344], [0.13350445, -1.805167], [0.05975279, -0.196904], [0.0277617, 0.841489]], [0, [0.0277617, 1.0]], [0, [0.01289834, 1.0]], [1, [84.11621248, 0.00021], [41.67010486, -0.003354], [20.84027636, 0.054507], [13.1175259, -0.185677], [7.96834211, 0.1136], [4.08681185, 0.286879], [2.29416473, 0.386568], [1.21038981, 0.304256], [0.60503887, 0.104511], [0.23373223, 0.008916], [0.0905483, -0.000333], [0.03498335, 0.000208]], [1, [84.11621248, 4e-06], [41.67010486, 0.000359], [20.84027636, -0.009409], [13.1175259, 0.03575], [7.96834211, -0.025333], [4.08681185, -0.064167], [2.29416473, -0.086609], [1.21038981, -0.086359], [0.60503887, 0.027529], [0.23373223, 0.324015], [0.0905483, 0.541358], [0.03498335, 0.260105]], [1, [84.11621248, -9.7e-05], [41.67010486, -0.001093], [20.84027636, 0.054854], [13.1175259, -0.302416], [7.96834211, 0.3704], [4.08681185, 0.7815], [2.29416473, -0.133515], [1.21038981, -0.829877], [0.60503887, -0.276498], [0.23373223, 0.679878], [0.0905483, 0.342509], [0.03498335, 0.000334]], [1, [84.11621248, 0.000342], [41.67010486, -0.003336], [20.84027636, 0.098476], [13.1175259, -0.655108], [7.96834211, 1.275801], [4.08681185, 0.700436], [2.29416473, -1.674683], [1.21038981, -0.445629], [0.60503887, 1.497855], [0.23373223, -0.162223], [0.0905483, -0.632066], [0.03498335, 0.018744]], [1, [84.11621248, 0.004681], [41.67010486, -0.030582], [20.84027636, 0.124236], [13.1175259, 0.21778], [7.96834211, -1.536679], [4.08681185, 1.170732], [2.29416473, 0.932627], [1.21038981, -1.845524], [0.60503887, 0.707649], [0.23373223, 0.494903], [0.0905483, -0.575064], [0.03498335, 0.021878]], [1, [0.03498335, 1.0]], [1, [0.01351582, 1.0]], [2, [85.06963135, 0.000306], [37.22826442, -0.00619], [15.61164981, 0.135912], [9.50636668, 0.057336], [5.30208049, 0.240495], [2.49612499, 0.317037], [1.13949453, 0.29791], [0.51100337, 0.208077], [0.230497, 0.090388], [0.11275594, 0.026692]], [2, [85.06963135, -4e-05], [37.22826442, 0.005773], [15.61164981, -0.159536], [9.50636668, -0.06682], [5.30208049, -0.377892], [2.49612499, -0.225348], [1.13949453, 0.197365], [0.51100337, 0.40543], [0.230497, 0.287219], [0.11275594, 0.134596]], [2, [85.06963135, 0.000844], [37.22826442, 0.001909], [15.61164981, -0.161123], [9.50636668, -0.138816], [5.30208049, -0.495349], [2.49612499, 0.338929], [1.13949453, 0.642294], [0.51100337, -0.062501], [0.230497, -0.424292], [0.11275594, -0.330264]], [2, [85.06963135, 0.004172], [37.22826442, -0.012359], [15.61164981, -0.197125], [9.50636668, -0.584626], [5.30208049, 0.008748], [2.49612499, 1.205337], [1.13949453, -0.519891], [0.51100337, -0.635552], [0.230497, 0.306963], [0.11275594, 0.434075]], [2, [0.11275594, 1.0]], [2, [0.05515864, 1.0]], [3, [6.93543, 1.0]], [3, [2.30775, 1.0]], [3, [0.767897, 1.0]], [3, [0.25551545, 1.0]], [4, [6.503244, 1.0]], [4, [2.204905, 1.0]], [4, [0.74756629, 1.0]], [5, [5.193885, 1.0]], [5, [1.76097081, 1.0]]]}
ecp = {'Cu': [10, [[-1, [[], [[19.87662576, 19.0]], [[18.71397328, 13322.8315411], [8.24597653, -143.81933419], [17.99726398, -6835.89401414], [19.50653533, -6413.73731394]], [[9.35936389, 377.6558895]]]], [0, [[], [], [[12.04327682, 217421.85846016], [11.98352277, -215987.47192743], [9.67744501, 1647.53099822], [17.5806873, -5124.79596488], [17.5092588, -963.5691239], [19.80724162, 3071.81011765]], []]], [1, [[], [], [[15.48559732, 189560.54470794], [15.42430413, -181115.65838446], [17.81980355, -1937.67548293], [17.69074392, -2335.92086442], [17.98867265, -8634.52846732], [19.82460345, 4504.58524733]], []]], [2, [[], [], [[10.91448054, -5224.34215851], [14.69969344, -3653.65459704], [11.52370333, 8159.25189768], [19.81153965, -2763.94279097], [18.0197982, 6020.80732635], [14.46480052, -2560.14492979]], []]]]]}
CPU time:         0.56


******** <class 'pyscf.scf.rohf.ROHF'> flags ********
method = ROHF
initial guess = minao
damping factor = 0
level shift factor = 1000.0
DIIS = <class 'pyscf.scf.diis.CDIIS'>
DIIS start cycle = 1
DIIS space = 8
SCF tol = 1e-09
SCF gradient tol = None
max. SCF cycles = 50
direct_scf = True
direct_scf_tol = 1e-13
chkfile to save SCF result = /projects/bamu3429/BENCHMARK/fresh_atoms/MRPT/vqz/atoms/Cu_0/tmpPpftr2
max_memory 4000 MB (current use 82 MB)
num. doubly occ = 9  num. singly occ = 1
Set gradient conv threshold to 3.16228e-05
init E= -196.56297197799
  HOMO = 499.894790977892  LUMO = 1000.02641069567
cycle= 1 E= -196.56297197799  delta_E= 8.53e-14  |g|= 3.92e-06  |ddm|= 1.21e-08
  HOMO = -0.105209021907004  LUMO = 0.0264106956779165
Extra cycle  E= -196.562971977993  delta_E= -3.18e-12  |g|= 3.5e-06  |ddm|= 6.9e-06
converged SCF energy = -196.562971977993
**** MO energy ****
                Roothaan           | alpha              | beta
MO #1   energy= -5.23025691950312  | -5.23421736771587  | -5.22629647187407  occ= 2
MO #2   energy= -3.49945767224608  | -3.50152219551058  | -3.49739314898157  occ= 2
MO #3   energy= -3.49945767224607  | -3.50152219551058  | -3.49739314898157  occ= 2
MO #4   energy= -3.49945767224607  | -3.50152219551057  | -3.49739314898156  occ= 2
MO #5   energy= -0.479976205603371 | -0.483493328623146 | -0.476459082583591 occ= 2
MO #6   energy= -0.479976205603359 | -0.483493328623137 | -0.476459082583584 occ= 2
MO #7   energy= -0.479976205603353 | -0.48349332862313  | -0.476459082583575 occ= 2
MO #8   energy= -0.479976205603345 | -0.483493328623121 | -0.476459082583565 occ= 2
MO #9   energy= -0.479976205603342 | -0.483493328623117 | -0.476459082583563 occ= 2
MO #10  energy= -0.105209021907004 | -0.244245855325556 | 0.0338277811561373 occ= 1
MO #11  energy= 0.0264106956779165 | 0.0234393955626416 | 0.0293819957931944 occ= 0
MO #12  energy= 0.0264106956779174 | 0.0234393955626438 | 0.029381995793196  occ= 0
MO #13  energy= 0.0264106956779175 | 0.0234393955626437 | 0.0293819957931958 occ= 0
MO #14  energy= 0.0305868195649929 | 0.0285233910702162 | 0.0326503198054844 occ= 0
MO #15  energy= 0.0901242607458192 | 0.0756112187953921 | 0.104637302696258  occ= 0
MO #16  energy= 0.0901242607458231 | 0.0756112187953948 | 0.10463730269626   occ= 0
MO #17  energy= 0.0901242607458372 | 0.0756112187953943 | 0.104637302696259  occ= 0
MO #18  energy= 0.161112490961663  | 0.157808633723564  | 0.164416348199753  occ= 0
MO #19  energy= 0.161112490961665  | 0.157808633723568  | 0.164416348199757  occ= 0
MO #20  energy= 0.161112490961669  | 0.157808633723569  | 0.164416348199758  occ= 0
MO #21  energy= 0.161112490961677  | 0.157808633723581  | 0.16441634819977   occ= 0
MO #22  energy= 0.161112490961688  | 0.157808633723584  | 0.164416348199773  occ= 0
MO #23  energy= 0.218377529100016  | 0.207755291898159  | 0.228999748468475  occ= 0
MO #24  energy= 0.325709437237059  | 0.306489164097529  | 0.344929710376596  occ= 0
MO #25  energy= 0.32570943723706   | 0.306489164097528  | 0.344929710376595  occ= 0
MO #26  energy= 0.325709437237066  | 0.306489164097533  | 0.344929710376599  occ= 0
MO #27  energy= 0.495819189358759  | 0.48696143607331   | 0.504676942644219  occ= 0
MO #28  energy= 0.495819189358766  | 0.486961436073306  | 0.504676942644211  occ= 0
MO #29  energy= 0.495819189358812  | 0.486961436073352  | 0.504676942644257  occ= 0
MO #30  energy= 0.495819189358817  | 0.486961436073368  | 0.504676942644272  occ= 0
MO #31  energy= 0.495819189358821  | 0.486961436073373  | 0.504676942644277  occ= 0
MO #32  energy= 0.739378098271714  | 0.727439353806101  | 0.751316820212994  occ= 0
MO #33  energy= 0.992422266642948  | 0.983571301314018  | 1.00127323197189   occ= 0
MO #34  energy= 0.992422266642954  | 0.983571301314017  | 1.00127323197189   occ= 0
MO #35  energy= 0.992422266642954  | 0.983571301314019  | 1.00127323197189   occ= 0
MO #36  energy= 0.992422266642955  | 0.983571301314019  | 1.00127323197189   occ= 0
MO #37  energy= 0.992422266642963  | 0.983571301314024  | 1.0012732319719    occ= 0
MO #38  energy= 0.992422266642963  | 0.983571301314023  | 1.0012732319719    occ= 0
MO #39  energy= 0.992422266642966  | 0.983571301314024  | 1.0012732319719    occ= 0
MO #40  energy= 1.55023457466458   | 1.54248565093737   | 1.55798349839179   occ= 0
MO #41  energy= 1.55023457466459   | 1.54248565093737   | 1.5579834983918    occ= 0
MO #42  energy= 1.55023457466472   | 1.54248565093751   | 1.55798349839193   occ= 0
MO #43  energy= 1.55023457466474   | 1.54248565093754   | 1.55798349839196   occ= 0
MO #44  energy= 1.55023457466474   | 1.54248565093754   | 1.55798349839195   occ= 0
MO #45  energy= 1.85638781521696   | 1.84808877772559   | 1.86468685270836   occ= 0
MO #46  energy= 1.85638781521696   | 1.84808877772558   | 1.86468685270835   occ= 0
MO #47  energy= 1.85638781521697   | 1.84808877772559   | 1.86468685270835   occ= 0
MO #48  energy= 3.04857923185072   | 3.04467313760852   | 3.05248532609293   occ= 0
MO #49  energy= 3.04857923185073   | 3.04467313760853   | 3.05248532609294   occ= 0
MO #50  energy= 3.04857923185074   | 3.04467313760854   | 3.05248532609294   occ= 0
MO #51  energy= 3.04857923185075   | 3.04467313760855   | 3.05248532609295   occ= 0
MO #52  energy= 3.04857923185076   | 3.04467313760855   | 3.05248532609296   occ= 0
MO #53  energy= 3.04857923185076   | 3.04467313760856   | 3.05248532609297   occ= 0
MO #54  energy= 3.04857923185078   | 3.04467313760857   | 3.05248532609297   occ= 0
MO #55  energy= 3.11743647964105   | 3.11066146534377   | 3.12421149361431   occ= 0
MO #56  energy= 3.58882022915866   | 3.58401119837712   | 3.59362925994022   occ= 0
MO #57  energy= 3.58882022915866   | 3.58401119837711   | 3.59362925994021   occ= 0
MO #58  energy= 3.58882022915868   | 3.58401119837713   | 3.59362925994023   occ= 0
MO #59  energy= 3.58882022915869   | 3.58401119837714   | 3.59362925994024   occ= 0
MO #60  energy= 3.5888202291587    | 3.58401119837715   | 3.59362925994025   occ= 0
MO #61  energy= 3.58882022915871   | 3.58401119837716   | 3.59362925994025   occ= 0
MO #62  energy= 3.58882022915872   | 3.58401119837717   | 3.59362925994027   occ= 0
MO #63  energy= 3.58882022915873   | 3.58401119837717   | 3.59362925994027   occ= 0
MO #64  energy= 3.58882022915873   | 3.58401119837717   | 3.59362925994027   occ= 0
MO #65  energy= 5.18860479133575   | 5.18611151382705   | 5.19109806884446   occ= 0
MO #66  energy= 5.18860479133579   | 5.18611151382709   | 5.1910980688445    occ= 0
MO #67  energy= 5.18860479133595   | 5.18611151382723   | 5.19109806884464   occ= 0
MO #68  energy= 5.18860479133597   | 5.18611151382727   | 5.19109806884468   occ= 0
MO #69  energy= 5.18860479133597   | 5.18611151382726   | 5.19109806884467   occ= 0
MO #70  energy= 6.65329959521102   | 6.65040412706958   | 6.65619506335245   occ= 0
MO #71  energy= 6.65329959521102   | 6.65040412706959   | 6.65619506335246   occ= 0
MO #72  energy= 6.65329959521103   | 6.65040412706958   | 6.65619506335246   occ= 0
MO #73  energy= 8.06288798565505   | 8.06191594599535   | 8.06386002531478   occ= 0
MO #74  energy= 8.06288798565505   | 8.06191594599534   | 8.06386002531477   occ= 0
MO #75  energy= 8.06288798565511   | 8.06191594599539   | 8.06386002531482   occ= 0
MO #76  energy= 8.06288798565515   | 8.06191594599545   | 8.06386002531488   occ= 0
MO #77  energy= 8.06288798565515   | 8.06191594599544   | 8.06386002531486   occ= 0
MO #78  energy= 8.06288798565515   | 8.06191594599544   | 8.06386002531487   occ= 0
MO #79  energy= 8.06288798565516   | 8.06191594599543   | 8.06386002531486   occ= 0
MO #80  energy= 10.1231270332551   | 10.1217454433291   | 10.124508623181    occ= 0
MO #81  energy= 10.1231270332551   | 10.1217454433291   | 10.1245086231811   occ= 0
MO #82  energy= 10.1231270332551   | 10.1217454433291   | 10.1245086231811   occ= 0
MO #83  energy= 10.1231270332551   | 10.1217454433291   | 10.1245086231811   occ= 0
MO #84  energy= 10.1231270332551   | 10.1217454433291   | 10.1245086231811   occ= 0
MO #85  energy= 10.1231270332551   | 10.1217454433291   | 10.1245086231811   occ= 0
MO #86  energy= 10.1231270332551   | 10.1217454433291   | 10.1245086231811   occ= 0
MO #87  energy= 10.1231270332551   | 10.1217454433291   | 10.1245086231811   occ= 0
MO #88  energy= 10.1231270332551   | 10.1217454433291   | 10.1245086231811   occ= 0
MO #89  energy= 10.1231270332551   | 10.1217454433291   | 10.1245086231811   occ= 0
MO #90  energy= 10.1231270332551   | 10.1217454433291   | 10.1245086231811   occ= 0
MO #91  energy= 10.8005500855816   | 10.7998650795544   | 10.8012350916086   occ= 0
MO #92  energy= 10.8005500855816   | 10.7998650795545   | 10.8012350916087   occ= 0
MO #93  energy= 10.8005500855816   | 10.7998650795545   | 10.8012350916087   occ= 0
MO #94  energy= 10.8005500855816   | 10.7998650795545   | 10.8012350916087   occ= 0
MO #95  energy= 10.8005500855816   | 10.7998650795545   | 10.8012350916087   occ= 0
MO #96  energy= 10.8005500855816   | 10.7998650795545   | 10.8012350916087   occ= 0
MO #97  energy= 10.8005500855816   | 10.7998650795545   | 10.8012350916087   occ= 0
MO #98  energy= 10.8005500855817   | 10.7998650795545   | 10.8012350916088   occ= 0
MO #99  energy= 10.8005500855817   | 10.7998650795546   | 10.8012350916088   occ= 0
MO #100 energy= 12.7273478926755   | 12.7247078800916   | 12.7299879051345   occ= 0
MO #101 energy= 15.0550103795436   | 15.0540402596757   | 15.0559804994115   occ= 0
MO #102 energy= 15.0550103795437   | 15.0540402596757   | 15.0559804994116   occ= 0
MO #103 energy= 15.0550103795437   | 15.0540402596757   | 15.0559804994116   occ= 0
MO #104 energy= 15.0550103795437   | 15.0540402596757   | 15.0559804994115   occ= 0
MO #105 energy= 15.0550103795437   | 15.0540402596757   | 15.0559804994116   occ= 0
MO #106 energy= 20.5576725764986   | 20.556515257694    | 20.5588298953033   occ= 0
MO #107 energy= 20.5576725764987   | 20.556515257694    | 20.5588298953033   occ= 0
MO #108 energy= 20.5576725764987   | 20.556515257694    | 20.5588298953033   occ= 0
MO #109 energy= 22.057692051504    | 22.0567666704884   | 22.0586174325198   occ= 0
MO #110 energy= 22.0576920515041   | 22.0567666704883   | 22.0586174325197   occ= 0
MO #111 energy= 22.0576920515041   | 22.0567666704884   | 22.0586174325198   occ= 0
MO #112 energy= 22.0576920515041   | 22.0567666704883   | 22.0586174325197   occ= 0
MO #113 energy= 22.0576920515041   | 22.0567666704884   | 22.0586174325198   occ= 0
MO #114 energy= 22.0576920515041   | 22.0567666704884   | 22.0586174325198   occ= 0
MO #115 energy= 22.0576920515042   | 22.0567666704884   | 22.0586174325198   occ= 0
MO #116 energy= 29.6728975976258   | 29.6722466377224   | 29.6735485575292   occ= 0
MO #117 energy= 29.6728975976258   | 29.6722466377224   | 29.6735485575291   occ= 0
MO #118 energy= 29.6728975976259   | 29.6722466377226   | 29.6735485575293   occ= 0
MO #119 energy= 29.6728975976259   | 29.6722466377225   | 29.6735485575292   occ= 0
MO #120 energy= 29.6728975976259   | 29.6722466377226   | 29.6735485575293   occ= 0
MO #121 energy= 29.6728975976259   | 29.6722466377225   | 29.6735485575292   occ= 0
MO #122 energy= 29.6728975976259   | 29.6722466377226   | 29.6735485575293   occ= 0
MO #123 energy= 29.6728975976259   | 29.6722466377226   | 29.6735485575293   occ= 0
MO #124 energy= 29.672897597626    | 29.6722466377226   | 29.6735485575293   occ= 0
MO #125 energy= 30.3288951615566   | 30.3285809353472   | 30.329209387766    occ= 0
MO #126 energy= 30.3288951615566   | 30.3285809353472   | 30.329209387766    occ= 0
MO #127 energy= 30.3288951615567   | 30.3285809353472   | 30.3292093877661   occ= 0
MO #128 energy= 30.3288951615567   | 30.3285809353473   | 30.3292093877661   occ= 0
MO #129 energy= 30.3288951615567   | 30.3285809353473   | 30.3292093877661   occ= 0
MO #130 energy= 30.3288951615567   | 30.3285809353473   | 30.3292093877661   occ= 0
MO #131 energy= 30.3288951615567   | 30.3285809353473   | 30.3292093877661   occ= 0
MO #132 energy= 30.3288951615567   | 30.3285809353473   | 30.3292093877661   occ= 0
MO #133 energy= 30.3288951615567   | 30.3285809353473   | 30.3292093877661   occ= 0
MO #134 energy= 30.3288951615568   | 30.3285809353474   | 30.3292093877662   occ= 0
MO #135 energy= 30.3288951615568   | 30.3285809353474   | 30.3292093877662   occ= 0
 ** Mulliken pop on meta-lowdin orthogonal AOs  **
 ** Mulliken pop  **
pop of  0Cu 3s        1.99997
pop of  0Cu 4s        0.99258
pop of  0Cu 5s        0.00501
pop of  0Cu 6s        0.00064
pop of  0Cu 7s        0.00000
pop of  0Cu 8s        0.00093
pop of  0Cu 9s        0.00087
pop of  0Cu 3px       1.99994
pop of  0Cu 3py       1.99994
pop of  0Cu 3pz       1.99994
pop of  0Cu 4px       0.00004
pop of  0Cu 4py       0.00004
pop of  0Cu 4pz       0.00004
pop of  0Cu 5px       0.00001
pop of  0Cu 5py       0.00001
pop of  0Cu 5pz       0.00001
pop of  0Cu 6px       0.00001
pop of  0Cu 6py       0.00001
pop of  0Cu 6pz       0.00001
pop of  0Cu 7px       0.00000
pop of  0Cu 7py       0.00000
pop of  0Cu 7pz       0.00000
pop of  0Cu 8px       0.00000
pop of  0Cu 8py       0.00000
pop of  0Cu 8pz       0.00000
pop of  0Cu 9px       0.00000
pop of  0Cu 9py       0.00000
pop of  0Cu 9pz       0.00000
pop of  0Cu 3dxy      1.99771
pop of  0Cu 3dyz      1.99771
pop of  0Cu 3dz^2     1.99771
pop of  0Cu 3dxz      1.99771
pop of  0Cu 3dx2-y2    1.99771
pop of  0Cu 4dxy      0.00140
pop of  0Cu 4dyz      0.00140
pop of  0Cu 4dz^2     0.00140
pop of  0Cu 4dxz      0.00140
pop of  0Cu 4dx2-y2    0.00140
pop of  0Cu 5dxy      0.00020
pop of  0Cu 5dyz      0.00020
pop of  0Cu 5dz^2     0.00020
pop of  0Cu 5dxz      0.00020
pop of  0Cu 5dx2-y2    0.00020
pop of  0Cu 6dxy      0.00000
pop of  0Cu 6dyz      0.00000
pop of  0Cu 6dz^2     0.00000
pop of  0Cu 6dxz      0.00000
pop of  0Cu 6dx2-y2    0.00000
pop of  0Cu 7dxy      0.00054
pop of  0Cu 7dyz      0.00054
pop of  0Cu 7dz^2     0.00054
pop of  0Cu 7dxz      0.00054
pop of  0Cu 7dx2-y2    0.00054
pop of  0Cu 8dxy      0.00015
pop of  0Cu 8dyz      0.00015
pop of  0Cu 8dz^2     0.00015
pop of  0Cu 8dxz      0.00015
pop of  0Cu 8dx2-y2    0.00015
pop of  0Cu 4fy^3     0.00000
pop of  0Cu 4fxyz     0.00000
pop of  0Cu 4fyz^2    0.00000
pop of  0Cu 4fz^3     0.00000
pop of  0Cu 4fxz^2    0.00000
pop of  0Cu 4fzx^2    0.00000
pop of  0Cu 4fx^3     0.00000
pop of  0Cu 5fy^3     0.00000
pop of  0Cu 5fxyz     0.00000
pop of  0Cu 5fyz^2    0.00000
pop of  0Cu 5fz^3     0.00000
pop of  0Cu 5fxz^2    0.00000
pop of  0Cu 5fzx^2    0.00000
pop of  0Cu 5fx^3     0.00000
pop of  0Cu 6fy^3     0.00000
pop of  0Cu 6fxyz     0.00000
pop of  0Cu 6fyz^2    0.00000
pop of  0Cu 6fz^3     0.00000
pop of  0Cu 6fxz^2    0.00000
pop of  0Cu 6fzx^2    0.00000
pop of  0Cu 6fx^3     0.00000
pop of  0Cu 7fy^3     0.00000
pop of  0Cu 7fxyz     0.00000
pop of  0Cu 7fyz^2    0.00000
pop of  0Cu 7fz^3     0.00000
pop of  0Cu 7fxz^2    0.00000
pop of  0Cu 7fzx^2    0.00000
pop of  0Cu 7fx^3     0.00000
pop of  0Cu 5g-4      0.00000
pop of  0Cu 5g-3      0.00000
pop of  0Cu 5g-2      0.00000
pop of  0Cu 5g-1      0.00000
pop of  0Cu 5g 0      0.00000
pop of  0Cu 5g 1      0.00000
pop of  0Cu 5g 2      0.00000
pop of  0Cu 5g 3      0.00000
pop of  0Cu 5g 4      0.00000
pop of  0Cu 6g-4      0.00000
pop of  0Cu 6g-3      0.00000
pop of  0Cu 6g-2      0.00000
pop of  0Cu 6g-1      0.00000
pop of  0Cu 6g 0      0.00000
pop of  0Cu 6g 1      0.00000
pop of  0Cu 6g 2      0.00000
pop of  0Cu 6g 3      0.00000
pop of  0Cu 6g 4      0.00000
pop of  0Cu 7g-4      0.00000
pop of  0Cu 7g-3      0.00000
pop of  0Cu 7g-2      0.00000
pop of  0Cu 7g-1      0.00000
pop of  0Cu 7g 0      0.00000
pop of  0Cu 7g 1      0.00000
pop of  0Cu 7g 2      0.00000
pop of  0Cu 7g 3      0.00000
pop of  0Cu 7g 4      0.00000
pop of  0Cu 6h-5      0.00000
pop of  0Cu 6h-4      0.00000
pop of  0Cu 6h-3      0.00000
pop of  0Cu 6h-2      0.00000
pop of  0Cu 6h-1      0.00000
pop of  0Cu 6h 0      0.00000
pop of  0Cu 6h 1      0.00000
pop of  0Cu 6h 2      0.00000
pop of  0Cu 6h 3      0.00000
pop of  0Cu 6h 4      0.00000
pop of  0Cu 6h 5      0.00000
pop of  0Cu 7h-5      0.00000
pop of  0Cu 7h-4      0.00000
pop of  0Cu 7h-3      0.00000
pop of  0Cu 7h-2      0.00000
pop of  0Cu 7h-1      0.00000
pop of  0Cu 7h 0      0.00000
pop of  0Cu 7h 1      0.00000
pop of  0Cu 7h 2      0.00000
pop of  0Cu 7h 3      0.00000
pop of  0Cu 7h 4      0.00000
pop of  0Cu 7h 5      0.00000
 ** Mulliken atomic charges  **
charge of  0Cu =     -0.00000

******** <class 'pyscf.mcscf.mc1step.CASSCF'> flags ********
CAS (6e+5e, 6o), ncore = 4, nvir = 125
max_cycle_macro = 50
max_cycle_micro = 4
conv_tol = 1e-07
conv_tol_grad = None
orbital rotation max_stepsize = 0.02
augmented hessian ah_max_cycle = 30
augmented hessian ah_conv_tol = 1e-12
augmented hessian ah_linear dependence = 1e-14
augmented hessian ah_level shift = 0
augmented hessian ah_start_tol = 2.5
augmented hessian ah_start_cycle = 3
augmented hessian ah_grad_trust_region = 3
kf_trust_region = 3
kf_interval = 4
ci_response_space = 4
ci_grad_trust_region = 3
with_dep4 0
natorb = False
canonicalization = True
chkfile = ./scratch/158829/tmpHFz7pS
max_memory 4000 MB (current use 428 MB)
internal_rotation = False

******** SHCI flags ********
executable             = /home/bamu3429/softwares/dice/Dice
mpiprefix              = mpirun -np 28
scratchDirectory       = ./scratch/158829
integralFile           = ./FCIDUMP
configFile             = ./input.dat
outputFile             = ./output.dat
maxIter                = 6
sweep_iter             = []
sweep_epsilon          = []
nPTiter                = 0
Stochastic             = True
fullrestart            = False
restart                = False
num_thrds              = 12
memory                 = None

CASCI E = -196.562971977992  S^2 = 0.7500000
Set conv_tol_grad to 0.000316228
macro iter 1 (1 JK  1 micro), CASSCF E = -196.562971977992  dE = 0  S^2 = 0.7500000
               |grad[o]|=3.5e-06  |grad[c]|= None  |ddm|=    0
1-step CASSCF converged in 1 macro (1 JK 1 micro) steps
CASSCF canonicalization
CASSCF energy = -196.562971977992


--------------------------------------------------
                 ICMPSPT CALCULATION              
--------------------------------------------------

Perturbation type: MRLCC
With fully internally contracted scheme
With third order correction

Preparing necessary RDMs
......production of RDMs took       0.48 sec
Reading binary 4RDM from DICE
......reading the RDM took          0.96 sec

(GOOD) Trace 4RDM:   7920.0 =   11*   10*    9*    8
(GOOD) Trace 3RDM:    990.0 =   11*   10*    9
(GOOD) Trace 2RDM:    110.0 =   11*   10
(GOOD) Trace 1RDM:     11.0 =   11

Energy_core =  -146.256483778
Energy      =  -196.562971978

WARNING: Have to use natural orbitals from CAASCF
         offdiagonal elements: 1.85039381507

Basic ingredients wrote to int/

Second-order:
perturber CCVV --        -0.121596358
perturber CCAV --        -0.000747848
perturber ACVV --        -0.366272804
terminate called after throwing an instance of 'std::runtime_error'
  what():  No convergence!
/bin/sh: line 1: 159418 Aborted                 /projects/bamu3429/softwares/icpt/icpt MRLCC_CCAA.inp > MRLCC_CCAA.out
Traceback (most recent call last):
  File "mrpt.py", line 57, in <module>
    do_dm4=True)
  File "/projects/bamu3429/softwares/pyscf/pyscf/icmpspt/icmpspt.py", line 1359, in icmpspt
    cumulantE4=cumulantE4, df=df, no_handcoded_E3=no_handcoded_E3)
  File "/projects/bamu3429/softwares/pyscf/pyscf/icmpspt/icmpspt.py", line 673, in executeMRLCC
    output = check_call("%s  %s  %s > %s"%(mpiprefix, executable, infile, outfile), shell=True)
  File "/curc/sw/python/2.7.11/lib/python2.7/subprocess.py", line 540, in check_call
    raise CalledProcessError(retcode, cmd)
subprocess.CalledProcessError: Command '  /projects/bamu3429/softwares/icpt/icpt  MRLCC_CCAA.inp > MRLCC_CCAA.out' returned non-zero exit status 134
