 &FCI NORB=6 ,NELEC=6 ,MS2=6,
  ORBSYM=1,1,1,1,1,1,
  ISYM=1,
 &END
  8.689971885834e-01    1  1  1  1
  3.914880952238e-02    2  1  2  1
  7.906995695387e-01    2  2  1  1
  8.689971885834e-01    2  2  2  2
 -5.599517020235e-04    3  1  2  1
  9.270206150439e-05    3  1  2  2
  2.033637637987e-02    3  1  3  1
  1.119903404047e-03    3  2  1  1
 -4.635103075234e-05    3  2  2  1
 -2.279612900649e-03    3  2  3  1
  3.778020770901e-02    3  2  3  2
  8.283244358237e-01    3  3  1  1
  4.559225801299e-03    3  3  2  1
  7.934367731654e-01    3  3  2  2
  8.689971885834e-01    3  3  3  3
  1.905288722396e-04    4  1  2  1
 -7.999381573724e-04    4  1  2  2
 -1.867357840339e-03    4  1  3  1
 -1.929003495361e-03    4  1  3  2
  6.456312754843e-03    4  1  3  3
  3.157484472338e-02    4  1  4  1
 -3.810577444793e-04    4  2  1  1
  3.999690786863e-04    4  2  2  1
 -1.755197326621e-03    4  2  3  1
  2.163592926627e-03    4  2  3  2
  4.650244241882e-03    4  2  3  3
  9.391048404717e-03    4  2  4  1
  2.648188218289e-02    4  2  4  2
  3.734715680677e-03    4  3  1  1
  3.684200821982e-03    4  3  2  1
 -4.327185853254e-03    4  3  2  2
 -3.228156377421e-03    4  3  3  1
 -2.325122120941e-03    4  3  3  2
  4.415417795712e-04    4  3  4  1
 -6.679064966278e-04    4  3  4  2
  3.397039083684e-02    4  3  4  3
  8.058474991367e-01    4  4  1  1
 -1.878209680943e-02    4  4  2  1
  8.160334242177e-01    4  4  2  2
 -8.830835591429e-04    4  4  3  1
  1.335812993255e-03    4  4  3  2
  8.010564069097e-01    4  4  3  3
  8.689971885834e-01    4  4  4  4
  2.402871234431e-04    5  1  2  1
  4.399847527844e-04    5  1  2  2
  3.776701393352e-03    5  1  3  1
 -6.338145944826e-04    5  1  3  2
  4.840440021104e-03    5  1  3  3
  3.099347173020e-04    5  1  4  1
  6.601165959215e-04    5  1  4  2
 -1.466104912341e-02    5  1  4  3
 -5.280424773888e-03    5  1  4  4
  3.513497694395e-02    5  1  5  1
 -4.805742468854e-04    5  2  1  1
 -2.199923763922e-04    5  2  2  1
 -1.424132116361e-03    5  2  3  1
 -3.458259790852e-03    5  2  3  2
 -1.817337960387e-03    5  2  3  3
  1.405224258265e-03    5  2  4  1
  1.756718539566e-04    5  2  4  2
  6.927774687560e-03    5  2  4  3
  2.297912207276e-03    5  2  4  4
 -7.111435504068e-03    5  2  5  1
  2.278410815530e-02    5  2  5  2
 -7.553402786704e-03    5  3  1  1
  2.057946710844e-03    5  3  2  1
  6.916519581704e-03    5  3  2  2
 -2.420220010552e-03    5  3  3  1
  9.086689801944e-04    5  3  3  2
  1.222674285680e-02    5  3  4  1
  9.772302629757e-03    5  3  4  2
 -4.856065712585e-04    5  3  4  3
  6.368832049997e-04    5  3  4  4
 -3.951907488188e-04    5  3  5  1
  1.227858198651e-03    5  3  5  2
  3.410803264386e-02    5  3  5  3
 -6.198694346043e-04    5  4  1  1
 -2.065340854186e-03    5  4  2  1
 -3.513437079134e-04    5  4  2  2
  2.434306266607e-03    5  4  3  1
 -1.670007731732e-02    5  4  3  2
  9.712131425169e-04    5  4  3  3
  2.640212386944e-03    5  4  4  1
 -1.148956103637e-03    5  4  4  2
 -3.184416024997e-04    5  4  4  3
  2.828187298735e-03    5  4  5  1
  2.134593248702e-03    5  4  5  2
 -2.962350862879e-04    5  4  5  3
  3.416788982647e-02    5  4  5  4
  7.987272346955e-01    5  5  1  1
  1.422287100814e-02    5  5  2  1
  8.234289722728e-01    5  5  2  2
  7.903814976371e-04    5  5  3  1
 -2.455716397303e-03    5  5  3  2
  8.007811232957e-01    5  5  3  3
 -5.656374597470e-03    5  5  4  1
 -4.269186497404e-03    5  5  4  2
  5.924701725754e-04    5  5  4  3
  8.006614089305e-01    5  5  4  4
  8.689971885834e-01    5  5  5  5
  4.742492008393e-04    6  1  1  1
 -1.254688992818e-03    6  1  2  1
 -4.721437114955e-04    6  1  2  2
  3.173237654149e-05    6  1  3  1
  3.081057092590e-05    6  1  3  2
  9.847636616219e-05    6  1  3  3
 -4.119262322514e-05    6  1  4  1
 -5.685836009642e-05    6  1  4  2
 -1.114265361560e-04    6  1  4  3
  1.049579413419e-03    6  1  4  4
 -4.807987379672e-05    6  1  5  1
  1.410368387446e-05    6  1  5  2
 -3.305705335719e-04    6  1  5  3
  1.046847962866e-04    6  1  5  4
 -1.150161268920e-03    6  1  5  5
  9.540732576856e-03    6  1  6  1
 -1.254688992821e-03    6  2  1  1
 -4.721437114963e-04    6  2  2  1
  1.252743125533e-03    6  2  2  2
  3.081057092591e-05    6  2  3  1
 -1.007117949279e-04    6  2  3  2
 -1.196028707857e-03    6  2  3  3
 -5.685836009639e-05    6  2  4  1
 -3.165873465562e-05    6  2  4  2
 -3.301068434284e-04    6  2  4  3
  7.430943857493e-04    6  2  4  4
  1.410368387447e-05    6  2  5  1
  2.724076694487e-05    6  2  5  2
  3.600509181408e-04    6  2  5  3
  1.136062103817e-04    6  2  5  4
  4.548801893774e-04    6  2  5  5
  9.540732576856e-03    6  2  6  2
  3.173237654139e-05    6  3  1  1
  3.081057092591e-05    6  3  2  1
 -1.007117949280e-04    6  3  2  2
  9.847636616146e-05    6  3  3  1
 -1.196028707854e-03    6  3  3  2
 -1.283844165386e-04    6  3  3  3
 -1.114265361560e-04    6  3  4  1
 -3.301068434286e-04    6  3  4  2
  5.017745045106e-04    6  3  4  3
 -2.982743784046e-05    6  3  4  4
 -3.305705335719e-04    6  3  5  1
  3.600509181411e-04    6  3  5  2
 -3.094022412634e-04    6  3  5  3
  9.840190715605e-04    6  3  5  4
  2.271912727653e-04    6  3  5  5
  9.540732576858e-03    6  3  6  3
 -4.119262322509e-05    6  4  1  1
 -5.685836009642e-05    6  4  2  1
 -3.165873465555e-05    6  4  2  2
 -1.114265361560e-04    6  4  3  1
 -3.301068434286e-04    6  4  3  2
  5.017745045106e-04    6  4  3  3
  1.049579413418e-03    6  4  4  1
  7.430943857534e-04    6  4  4  2
 -2.982743784036e-05    6  4  4  3
  3.992596186720e-05    6  4  4  4
  1.046847962866e-04    6  4  5  1
  1.136062103817e-04    6  4  5  2
  9.840190715603e-04    6  4  5  3
  3.845546173181e-04    6  4  5  4
 -4.688491084968e-04    6  4  5  5
  9.540732576858e-03    6  4  6  4
 -4.807987379689e-05    6  5  1  1
  1.410368387447e-05    6  5  2  1
  2.724076694466e-05    6  5  2  2
 -3.305705335719e-04    6  5  3  1
  3.600509181411e-04    6  5  3  2
 -3.094022412635e-04    6  5  3  3
  1.046847962866e-04    6  5  4  1
  1.136062103817e-04    6  5  4  2
  9.840190715603e-04    6  5  4  3
  3.845546173178e-04    6  5  4  4
 -1.150161268921e-03    6  5  5  1
  4.548801893811e-04    6  5  5  2
  2.271912727654e-04    6  5  5  3
 -4.688491084969e-04    6  5  5  4
 -5.431326920311e-05    6  5  5  5
  9.540732576858e-03    6  5  6  5
  3.926051848132e-01    6  6  1  1
  3.926051848132e-01    6  6  2  2
  3.926051848132e-01    6  6  3  3
  3.926051848132e-01    6  6  4  4
  3.926051848132e-01    6  6  5  5
  3.119495209335e-01    6  6  6  6
 -4.407839639212e+00    1  1  0  0
 -4.407839639212e+00    2  2  0  0
 -4.407839639211e+00    3  3  0  0
 -4.407839639211e+00    4  4  0  0
 -4.407839639211e+00    5  5  0  0
 -2.465931714732e+00    6  6  0  0
    -88.452502385820   0  0  0  0
