#INFO: **** input file is /projects/bamu3429/BENCHMARK/fresh_atoms/MRPT/vtz/atoms/Mn_1/mrpt.py ****
import json
from pyscf import gto,scf,mcscf, fci, lo, ci, cc
from pyscf.scf import ROHF, UHF,ROKS
import numpy as np
import pandas as pd

# THIS IS WERE IT STARTS ====================================

df=json.load(open("../../../trail.json"))

spins={'Sc':1, 'Ti':2, 'V':3, 'Cr':6, 'Mn':5, 'Fe':4, 'Cu':1}

nd={'Sc':(1,0), 'Ti':(2,0), 'V':(3,0), 'Cr':(5,0), 'Mn':(5,0), 'Fe':(5,1), 'Cu':(5,5)}

cas={'Sc':3, 'Ti':4, 'V':5, 'Cr':6, 'Mn':7, 'Fe':8, 'Cu':11}

datacsv={}
for nm in ['atom','charge','method','basis','pseudopotential','hf',
           'totalenergy','totalenergy-stocherr','totalenergy-syserr']:
  datacsv[nm]=[]

basis='vtz'
el='Mn'
charge=1

mol=gto.Mole()
mol.ecp={}
mol.basis={}
mol.ecp[el]=gto.basis.parse_ecp(df[el]['ecp'])
mol.basis[el]=gto.basis.parse(df[el][basis])
mol.charge=charge
if el == 'Cr' or el == 'Cu':
  mol.spin=spins[el]-charge
else:
  mol.spin=spins[el]+charge
mol.build(atom="%s 0. 0. 0."%el,verbose=4)

m=ROHF(mol)
m.level_shift=1000.0
dm=m.from_chk("../../../../HF/atoms/"+el+basis+str(charge)+".chk")
hf=m.kernel(dm)
m.analyze()

from pyscf.shciscf import shci
mc = shci.SHCISCF(m, 6, cas[el]-charge)
#mc.fcisolver.conv_tol = 1e-14
mc.fcisolver.mpiprefix="srun -n20"
mc.fcisolver.num_thrds=12
mc.verbose = 4
cas=mc.kernel()[0]
 
from pyscf.icmpspt import icmpspt
pt=icmpspt.icmpspt(mc,rdmM=500, PTM=1000,\
                          pttype="MRLCC",\
                          third_order=True,\
                          fully_ic=True,\
                          do_dm4=True)

datacsv['atom'].append(el)
datacsv['charge'].append(charge)
datacsv['method'].append('MRPT')
datacsv['basis'].append(basis)
datacsv['pseudopotential'].append('trail')
datacsv['hf'].append(hf)
datacsv['totalenergy'].append(cas+pt)
datacsv['totalenergy-stocherr'].append(0.0)
datacsv['totalenergy-syserr'].append(0.0)
pd.DataFrame(datacsv).to_csv(el+".csv",index=False)

#INFO: ******************** input file end ********************


System: ('Linux', 'bnode0302.rc.int.colorado.edu', '3.10.0-514.41.1.el7.x86_64', '#1 SMP Wed Jan 17 10:26:16 EST 2018', 'x86_64', 'x86_64')  Threads 28
Python 2.7.11 (default, Mar 22 2016, 01:42:54) 
[GCC Intel(R) C++ gcc 4.8 mode]
numpy 1.11.1  scipy 0.17.1
Date: Wed Apr 18 16:25:06 2018
PySCF version 1.4.6
PySCF path  /projects/bamu3429/softwares/pyscf_uptodate/pyscf
GIT ORIG_HEAD f3591ef22170896a4cdc2aadaa6f5da388ffcadb
GIT HEAD      ref: refs/heads/master
GIT master branch  1847583fb1d2472321833d3c71c8b7008e5fabf5

[INPUT] VERBOSE 4
[INPUT] num atoms = 1
[INPUT] num electrons = 14
[INPUT] charge = 1
[INPUT] spin (= nelec alpha-beta = 2S) = 6
[INPUT] symmetry False subgroup None
[INPUT]  1 Mn     0.000000000000   0.000000000000   0.000000000000 AA    0.000000000000   0.000000000000   0.000000000000 Bohr
[INPUT] ---------------- BASIS SET ---------------- 
[INPUT] l, kappa, [nprim/nctr], expnt,             c_1 c_2 ...
[INPUT] Mn
[INPUT] 0    0    [12   /1   ]  41.19094709       0.0124
                                21.94503151       -0.141461
                                12.89081507       0.669584
                                8.14876869        -1.015431
                                3.94904809        0.149151
                                1.91298055        0.350677
                                1.10736282        0.627006
                                0.4793266         0.235349
                                0.22675293        -0.024214
                                0.10639652        0.017357
                                0.05000494        -0.005272
                                0.0234982         0.002181
[INPUT] 0    0    [12   /1   ]  41.19094709       -0.002036
                                21.94503151       0.02709
                                12.89081507       -0.142056
                                8.14876869        0.229945
                                3.94904809        -0.035538
                                1.91298055        -0.085336
                                1.10736282        -0.24355
                                0.4793266         -0.201798
                                0.22675293        0.098761
                                0.10639652        0.439512
                                0.05000494        0.524416
                                0.0234982         0.13192
[INPUT] 0    0    [12   /1   ]  41.19094709       -0.004646
                                21.94503151       0.0905
                                12.89081507       -0.585022
                                8.14876869        1.111867
                                3.94904809        -0.363063
                                1.91298055        -1.33458
                                1.10736282        0.12279
                                0.4793266         0.708339
                                0.22675293        0.760146
                                0.10639652        0.035304
                                0.05000494        -0.576692
                                0.0234982         -0.237352
[INPUT] 0    0    [12   /1   ]  41.19094709       -0.002383
                                21.94503151       0.092523
                                12.89081507       -0.733494
                                8.14876869        1.604539
                                3.94904809        -0.989623
                                1.91298055        -2.287095
                                1.10736282        2.091286
                                0.4793266         1.469902
                                0.22675293        -1.522953
                                0.10639652        -0.860672
                                0.05000494        0.655242
                                0.0234982         0.514686
[INPUT] 0    0    [1    /1   ]  0.0234982            1
[INPUT] 0    0    [1    /1   ]  0.01104221           1
[INPUT] 1    0    [12   /1   ]  60.1913049        0.000757
                                31.1792672        -0.006538
                                16.24276866       0.042902
                                8.80021485        -0.164602
                                5.33575038        0.099387
                                3.0325056         0.217723
                                1.63861968        0.443669
                                0.80258711        0.32785
                                0.40627833        0.098641
                                0.17382998        0.011768
                                0.07306386        -0.000703
                                0.03071005        0.000403
[INPUT] 1    0    [12   /1   ]  60.1913049        -0.000118
                                31.1792672        0.001208
                                16.24276866       -0.009122
                                8.80021485        0.038924
                                5.33575038        -0.027473
                                3.0325056         -0.058215
                                1.63861968        -0.124371
                                0.80258711        -0.107355
                                0.40627833        0.040741
                                0.17382998        0.350952
                                0.07306386        0.523294
                                0.03071005        0.234255
[INPUT] 1    0    [12   /1   ]  60.1913049        -0.000242
                                31.1792672        -0.00184
                                16.24276866       0.036267
                                8.80021485        -0.233302
                                5.33575038        0.180046
                                3.0325056         0.831949
                                1.63861968        0.087927
                                0.80258711        -0.875277
                                0.40627833        -0.420967
                                0.17382998        0.588099
                                0.07306386        0.409206
                                0.03071005        0.007901
[INPUT] 1    0    [12   /1   ]  60.1913049        -0.000706
                                31.1792672        -0.000652
                                16.24276866       0.057679
                                8.80021485        -0.540394
                                5.33575038        1.073974
                                3.0325056         0.867896
                                1.63861968        -1.570127
                                0.80258711        -0.63828
                                0.40627833        1.540496
                                0.17382998        -0.071965
                                0.07306386        -0.646393
                                0.03071005        -0.005855
[INPUT] 1    0    [1    /1   ]  0.03071005           1
[INPUT] 1    0    [1    /1   ]  0.01290798           1
[INPUT] 2    0    [10   /1   ]  52.56900844       0.000307
                                23.81654224       -0.007961
                                11.32693504       0.114253
                                4.99176622        0.164228
                                2.46839125        0.269996
                                1.15974738        0.320627
                                0.53124091        0.273188
                                0.24220121        0.161357
                                0.11248934        0.058244
                                0.05201371        0.009574
[INPUT] 2    0    [10   /1   ]  52.56900844       0.000329
                                23.81654224       0.004981
                                11.32693504       -0.107244
                                4.99176622        -0.205338
                                2.46839125        -0.365645
                                1.15974738        -0.091627
                                0.53124091        0.261299
                                0.24220121        0.408087
                                0.11248934        0.283046
                                0.05201371        0.07082
[INPUT] 2    0    [10   /1   ]  52.56900844       -0.002087
                                23.81654224       0.00277
                                11.32693504       0.106828
                                4.99176622        0.384896
                                2.46839125        0.360764
                                1.15974738        -0.599205
                                0.53124091        -0.495286
                                0.24220121        0.247074
                                0.11248934        0.472515
                                0.05201371        0.138768
[INPUT] 2    0    [1    /1   ]  0.05201371           1
[INPUT] 2    0    [1    /1   ]  0.02405051           1
[INPUT] 3    0    [1    /1   ]  3.339139             1
[INPUT] 3    0    [1    /1   ]  0.926076             1
[INPUT] 3    0    [1    /1   ]  0.25683768           1
[INPUT] 4    0    [1    /1   ]  2.982582             1
[INPUT] 4    0    [1    /1   ]  0.82718854           1
nuclear repulsion = 0
number of shells = 22
number of NR pGTOs = 399
number of NR cGTOs = 88
basis = {'Mn': [[0, [41.19094709, 0.0124], [21.94503151, -0.141461], [12.89081507, 0.669584], [8.14876869, -1.015431], [3.94904809, 0.149151], [1.91298055, 0.350677], [1.10736282, 0.627006], [0.4793266, 0.235349], [0.22675293, -0.024214], [0.10639652, 0.017357], [0.05000494, -0.005272], [0.0234982, 0.002181]], [0, [41.19094709, -0.002036], [21.94503151, 0.02709], [12.89081507, -0.142056], [8.14876869, 0.229945], [3.94904809, -0.035538], [1.91298055, -0.085336], [1.10736282, -0.24355], [0.4793266, -0.201798], [0.22675293, 0.098761], [0.10639652, 0.439512], [0.05000494, 0.524416], [0.0234982, 0.13192]], [0, [41.19094709, -0.004646], [21.94503151, 0.0905], [12.89081507, -0.585022], [8.14876869, 1.111867], [3.94904809, -0.363063], [1.91298055, -1.33458], [1.10736282, 0.12279], [0.4793266, 0.708339], [0.22675293, 0.760146], [0.10639652, 0.035304], [0.05000494, -0.576692], [0.0234982, -0.237352]], [0, [41.19094709, -0.002383], [21.94503151, 0.092523], [12.89081507, -0.733494], [8.14876869, 1.604539], [3.94904809, -0.989623], [1.91298055, -2.287095], [1.10736282, 2.091286], [0.4793266, 1.469902], [0.22675293, -1.522953], [0.10639652, -0.860672], [0.05000494, 0.655242], [0.0234982, 0.514686]], [0, [0.0234982, 1.0]], [0, [0.01104221, 1.0]], [1, [60.1913049, 0.000757], [31.1792672, -0.006538], [16.24276866, 0.042902], [8.80021485, -0.164602], [5.33575038, 0.099387], [3.0325056, 0.217723], [1.63861968, 0.443669], [0.80258711, 0.32785], [0.40627833, 0.098641], [0.17382998, 0.011768], [0.07306386, -0.000703], [0.03071005, 0.000403]], [1, [60.1913049, -0.000118], [31.1792672, 0.001208], [16.24276866, -0.009122], [8.80021485, 0.038924], [5.33575038, -0.027473], [3.0325056, -0.058215], [1.63861968, -0.124371], [0.80258711, -0.107355], [0.40627833, 0.040741], [0.17382998, 0.350952], [0.07306386, 0.523294], [0.03071005, 0.234255]], [1, [60.1913049, -0.000242], [31.1792672, -0.00184], [16.24276866, 0.036267], [8.80021485, -0.233302], [5.33575038, 0.180046], [3.0325056, 0.831949], [1.63861968, 0.087927], [0.80258711, -0.875277], [0.40627833, -0.420967], [0.17382998, 0.588099], [0.07306386, 0.409206], [0.03071005, 0.007901]], [1, [60.1913049, -0.000706], [31.1792672, -0.000652], [16.24276866, 0.057679], [8.80021485, -0.540394], [5.33575038, 1.073974], [3.0325056, 0.867896], [1.63861968, -1.570127], [0.80258711, -0.63828], [0.40627833, 1.540496], [0.17382998, -0.071965], [0.07306386, -0.646393], [0.03071005, -0.005855]], [1, [0.03071005, 1.0]], [1, [0.01290798, 1.0]], [2, [52.56900844, 0.000307], [23.81654224, -0.007961], [11.32693504, 0.114253], [4.99176622, 0.164228], [2.46839125, 0.269996], [1.15974738, 0.320627], [0.53124091, 0.273188], [0.24220121, 0.161357], [0.11248934, 0.058244], [0.05201371, 0.009574]], [2, [52.56900844, 0.000329], [23.81654224, 0.004981], [11.32693504, -0.107244], [4.99176622, -0.205338], [2.46839125, -0.365645], [1.15974738, -0.091627], [0.53124091, 0.261299], [0.24220121, 0.408087], [0.11248934, 0.283046], [0.05201371, 0.07082]], [2, [52.56900844, -0.002087], [23.81654224, 0.00277], [11.32693504, 0.106828], [4.99176622, 0.384896], [2.46839125, 0.360764], [1.15974738, -0.599205], [0.53124091, -0.495286], [0.24220121, 0.247074], [0.11248934, 0.472515], [0.05201371, 0.138768]], [2, [0.05201371, 1.0]], [2, [0.02405051, 1.0]], [3, [3.339139, 1.0]], [3, [0.926076, 1.0]], [3, [0.25683768, 1.0]], [4, [2.982582, 1.0]], [4, [0.82718854, 1.0]]]}
ecp = {'Mn': [10, [[-1, [[], [[18.43432244, 15.0]], [[12.74175213, 31301.56494509], [11.67410914, -4576.3546318], [12.90376156, -26766.73507377], [4.97171871, -4.09339906]], [[8.79264819, 276.51483655]]]], [0, [[], [], [[13.56187871, 2771.78238977], [9.44812535, 12553.69429672], [10.76503846, 1886.79316638], [11.65345594, -9260.55332402], [8.48073002, -8943.95003535], [6.96707028, 1041.73211249]], []]], [1, [[], [], [[12.71342918, -23181.32761179], [18.03174513, 111577.22220216], [16.6827906, -42399.84416473], [13.18867124, 16025.79106608], [18.42861128, -76264.60573764], [12.90928974, 14270.47832347]], []]], [2, [[], [], [[8.13384228, -382.83904013], [14.28699222, 5676.99013005], [11.14406629, 35338.03440844], [11.37674978, -38881.44458388], [18.25818233, 3550.6602642], [17.73146307, -5317.47975296]], []]]]]}
CPU time:         3.56


******** <class 'pyscf.scf.rohf.ROHF'> flags ********
method = ROHF
initial guess = minao
damping factor = 0
level shift factor = 1000.0
DIIS = <class 'pyscf.scf.diis.CDIIS'>
DIIS start cycle = 1
DIIS space = 8
SCF tol = 1e-09
SCF gradient tol = None
max. SCF cycles = 50
direct_scf = True
direct_scf_tol = 1e-13
chkfile to save SCF result = /rc_scratch/bamu3429/tmpa9p2Hw
max_memory 4000 MB (current use 108 MB)
num. doubly occ = 4  num. singly occ = 6
Set gradient conv threshold to 3.16228e-05
init E= -103.298800706346
  HOMO = 499.629217194816  LUMO = 999.858050821633
cycle= 1 E= -103.298800706347  delta_E= -3.27e-13  |g|= 1.46e-05  |ddm|= 5e-08
  HOMO = -0.370782805674227  LUMO = -0.141949178507206
Extra cycle  E= -103.298800706366  delta_E= -1.89e-11  |g|= 4.1e-06  |ddm|= 1.51e-05
converged SCF energy = -103.298800706366
**** MO energy ****
                Roothaan           | alpha              | beta
MO #1   energy= -4.30647938428803  | -4.53251178410725  | -4.08044694762843  occ= 2
MO #2   energy= -2.81480994079869  | -3.08458509865013  | -2.54503478294722  occ= 2
MO #3   energy= -2.81480994079869  | -3.08458509865014  | -2.54503478294723  occ= 2
MO #4   energy= -2.81480994079868  | -3.08458509865014  | -2.54503478294722  occ= 2
MO #5   energy= -0.425003406172413 | -0.927370121896535 | 0.0773630523358847 occ= 1
MO #6   energy= -0.42500340617241  | -0.927370121896532 | 0.0773630523358896 occ= 1
MO #7   energy= -0.425003406172373 | -0.927370121896476 | 0.0773630523358978 occ= 1
MO #8   energy= -0.425003406172372 | -0.927370121896478 | 0.077363052335899  occ= 1
MO #9   energy= -0.425003406172369 | -0.927370121896479 | 0.0773630523358999 occ= 1
MO #10  energy= -0.370782805674227 | -0.550609369794601 | -0.190956221318708 occ= 1
MO #11  energy= -0.141949178507206 | -0.169589237634871 | -0.114309119379535 occ= 0
MO #12  energy= -0.141949178507202 | -0.169589237634871 | -0.114309119379534 occ= 0
MO #13  energy= -0.141949178507199 | -0.169589237634871 | -0.114309119379534 occ= 0
MO #14  energy= -0.0829262736709063 | -0.0854893517588362 | -0.0803630767909221 occ= 0
MO #15  energy= -0.0541290507689184 | -0.0595500868853651 | -0.0487080146524642 occ= 0
MO #16  energy= -0.054129050768916 | -0.0595500868853651 | -0.0487080146524649 occ= 0
MO #17  energy= -0.0541290507689158 | -0.0595500868853652 | -0.0487080146524645 occ= 0
MO #18  energy= -0.0481440585477942 | -0.049887434800647 | -0.0464007899170397 occ= 0
MO #19  energy= -0.0481440585477937 | -0.049887434800645 | -0.0464007899170382 occ= 0
MO #20  energy= -0.0481440585477931 | -0.0498874348006455 | -0.0464007899170379 occ= 0
MO #21  energy= -0.048144058547793 | -0.0498874348006463 | -0.0464007899170386 occ= 0
MO #22  energy= -0.0481440585477894 | -0.0498874348006453 | -0.0464007899170381 occ= 0
MO #23  energy= 0.0344710205536446 | 0.0230590633669503 | 0.0458829723991524 occ= 0
MO #24  energy= 0.0547482606043052 | 0.0464690571302449 | 0.0630274825451538 occ= 0
MO #25  energy= 0.054748260604308  | 0.0464690571302473 | 0.0630274825451557 occ= 0
MO #26  energy= 0.0547482606043102 | 0.0464690571302493 | 0.0630274825451573 occ= 0
MO #27  energy= 0.0547482606043109 | 0.0464690571302495 | 0.0630274825451579 occ= 0
MO #28  energy= 0.0547482606043113 | 0.0464690571302506 | 0.0630274825451598 occ= 0
MO #29  energy= 0.0714945109184783 | 0.0488413852681307 | 0.0941476365688278 occ= 0
MO #30  energy= 0.0714945109184786 | 0.0488413852681301 | 0.0941476365688269 occ= 0
MO #31  energy= 0.0714945109184786 | 0.0488413852681337 | 0.09414763656883   occ= 0
MO #32  energy= 0.648737844286483  | 0.589153700164925  | 0.708322156174193  occ= 0
MO #33  energy= 0.648737844286485  | 0.589153700164927  | 0.708322156174191  occ= 0
MO #34  energy= 0.648737844286488  | 0.589153700164925  | 0.708322156174192  occ= 0
MO #35  energy= 0.648737844286492  | 0.589153700164935  | 0.70832215617419   occ= 0
MO #36  energy= 0.648737844286493  | 0.589153700164946  | 0.708322156174192  occ= 0
MO #37  energy= 0.674615052217597  | 0.649084463402764  | 0.700145641032433  occ= 0
MO #38  energy= 0.674615052217597  | 0.649084463402763  | 0.700145641032432  occ= 0
MO #39  energy= 0.674615052217598  | 0.649084463402763  | 0.700145641032431  occ= 0
MO #40  energy= 0.674615052217598  | 0.649084463402764  | 0.700145641032432  occ= 0
MO #41  energy= 0.674615052217599  | 0.649084463402764  | 0.700145641032434  occ= 0
MO #42  energy= 0.674615052217599  | 0.649084463402763  | 0.700145641032432  occ= 0
MO #43  energy= 0.674615052217601  | 0.649084463402765  | 0.700145641032433  occ= 0
MO #44  energy= 0.681471236572797  | 0.642988982489881  | 0.719953328577824  occ= 0
MO #45  energy= 1.56886031378849   | 1.50146064703759   | 1.63625998053939   occ= 0
MO #46  energy= 1.56886031378849   | 1.50146064703759   | 1.63625998053939   occ= 0
MO #47  energy= 1.56886031378849   | 1.50146064703759   | 1.6362599805394    occ= 0
MO #48  energy= 2.85143982892084   | 2.75274102341232   | 2.95013863442936   occ= 0
MO #49  energy= 2.85143982892084   | 2.75274102341231   | 2.95013863442936   occ= 0
MO #50  energy= 2.85143982892084   | 2.75274102341232   | 2.95013863442936   occ= 0
MO #51  energy= 2.85143982892084   | 2.75274102341233   | 2.95013863442937   occ= 0
MO #52  energy= 2.85143982892084   | 2.75274102341232   | 2.95013863442937   occ= 0
MO #53  energy= 2.85143982892085   | 2.75274102341232   | 2.95013863442937   occ= 0
MO #54  energy= 2.85143982892085   | 2.75274102341232   | 2.95013863442937   occ= 0
MO #55  energy= 3.47416975249434   | 3.4339638074976    | 3.51437569749106   occ= 0
MO #56  energy= 3.47416975249434   | 3.4339638074976    | 3.51437569749107   occ= 0
MO #57  energy= 3.47416975249434   | 3.43396380749761   | 3.51437569749107   occ= 0
MO #58  energy= 3.47416975249435   | 3.43396380749762   | 3.51437569749108   occ= 0
MO #59  energy= 3.47416975249435   | 3.43396380749762   | 3.51437569749109   occ= 0
MO #60  energy= 3.47416975249435   | 3.43396380749762   | 3.51437569749109   occ= 0
MO #61  energy= 3.47416975249435   | 3.43396380749763   | 3.51437569749109   occ= 0
MO #62  energy= 3.47416975249436   | 3.43396380749763   | 3.51437569749109   occ= 0
MO #63  energy= 3.47416975249437   | 3.43396380749764   | 3.5143756974911    occ= 0
MO #64  energy= 3.52574870836256   | 3.41805709378756   | 3.63344050154255   occ= 0
MO #65  energy= 3.52574870836256   | 3.41805709378757   | 3.63344050154255   occ= 0
MO #66  energy= 3.52574870836256   | 3.41805709378757   | 3.63344050154256   occ= 0
MO #67  energy= 3.52574870836257   | 3.41805709378757   | 3.63344050154256   occ= 0
MO #68  energy= 3.52574870836257   | 3.41805709378757   | 3.63344050154256   occ= 0
MO #69  energy= 4.6651476199639    | 4.58641301739997   | 4.74388221407928   occ= 0
MO #70  energy= 7.18877304008144   | 7.11001111134796   | 7.26753496881494   occ= 0
MO #71  energy= 7.18877304008144   | 7.11001111134796   | 7.26753496881494   occ= 0
MO #72  energy= 7.18877304008145   | 7.11001111134796   | 7.26753496881494   occ= 0
MO #73  energy= 9.66266300328991   | 9.53084688482193   | 9.79447912175788   occ= 0
MO #74  energy= 9.66266300328992   | 9.53084688482197   | 9.79447912175792   occ= 0
MO #75  energy= 9.66266300328992   | 9.53084688482192   | 9.79447912175788   occ= 0
MO #76  energy= 9.66266300328993   | 9.53084688482195   | 9.7944791217579    occ= 0
MO #77  energy= 9.66266300328993   | 9.53084688482193   | 9.79447912175789   occ= 0
MO #78  energy= 9.66266300328993   | 9.53084688482197   | 9.79447912175793   occ= 0
MO #79  energy= 9.66266300328993   | 9.53084688482195   | 9.79447912175789   occ= 0
MO #80  energy= 12.8408209900826   | 12.7543177377155   | 12.9273242424497   occ= 0
MO #81  energy= 12.8408209900826   | 12.7543177377155   | 12.9273242424497   occ= 0
MO #82  energy= 12.8408209900826   | 12.7543177377154   | 12.9273242424497   occ= 0
MO #83  energy= 12.8408209900826   | 12.7543177377154   | 12.9273242424497   occ= 0
MO #84  energy= 12.8408209900826   | 12.7543177377155   | 12.9273242424497   occ= 0
MO #85  energy= 12.8408209900826   | 12.7543177377154   | 12.9273242424497   occ= 0
MO #86  energy= 12.8408209900826   | 12.7543177377154   | 12.9273242424497   occ= 0
MO #87  energy= 12.8408209900826   | 12.7543177377155   | 12.9273242424497   occ= 0
MO #88  energy= 12.8408209900826   | 12.7543177377155   | 12.9273242424497   occ= 0
 ** Mulliken pop on meta-lowdin orthogonal AOs  **
 ** Mulliken pop  **
pop of  0Mn 3s        1.99998
pop of  0Mn 4s        0.95346
pop of  0Mn 5s        0.02400
pop of  0Mn 6s        0.00879
pop of  0Mn 7s        0.00917
pop of  0Mn 8s        0.00460
pop of  0Mn 3px       1.99989
pop of  0Mn 3py       1.99989
pop of  0Mn 3pz       1.99989
pop of  0Mn 4px       0.00009
pop of  0Mn 4py       0.00009
pop of  0Mn 4pz       0.00009
pop of  0Mn 5px       0.00001
pop of  0Mn 5py       0.00001
pop of  0Mn 5pz       0.00001
pop of  0Mn 6px       0.00001
pop of  0Mn 6py       0.00001
pop of  0Mn 6pz       0.00001
pop of  0Mn 7px       0.00000
pop of  0Mn 7py       0.00000
pop of  0Mn 7pz       0.00000
pop of  0Mn 8px       0.00000
pop of  0Mn 8py       0.00000
pop of  0Mn 8pz       0.00000
pop of  0Mn 3dxy      0.99511
pop of  0Mn 3dyz      0.99511
pop of  0Mn 3dz^2     0.99511
pop of  0Mn 3dxz      0.99511
pop of  0Mn 3dx2-y2    0.99511
pop of  0Mn 4dxy      0.00367
pop of  0Mn 4dyz      0.00367
pop of  0Mn 4dz^2     0.00367
pop of  0Mn 4dxz      0.00367
pop of  0Mn 4dx2-y2    0.00367
pop of  0Mn 5dxy      0.00029
pop of  0Mn 5dyz      0.00029
pop of  0Mn 5dz^2     0.00029
pop of  0Mn 5dxz      0.00029
pop of  0Mn 5dx2-y2    0.00029
pop of  0Mn 6dxy      0.00088
pop of  0Mn 6dyz      0.00088
pop of  0Mn 6dz^2     0.00088
pop of  0Mn 6dxz      0.00088
pop of  0Mn 6dx2-y2    0.00088
pop of  0Mn 7dxy      0.00005
pop of  0Mn 7dyz      0.00005
pop of  0Mn 7dz^2     0.00005
pop of  0Mn 7dxz      0.00005
pop of  0Mn 7dx2-y2    0.00005
pop of  0Mn 4fy^3     0.00000
pop of  0Mn 4fxyz     0.00000
pop of  0Mn 4fyz^2    0.00000
pop of  0Mn 4fz^3     0.00000
pop of  0Mn 4fxz^2    0.00000
pop of  0Mn 4fzx^2    0.00000
pop of  0Mn 4fx^3     0.00000
pop of  0Mn 5fy^3     0.00000
pop of  0Mn 5fxyz     0.00000
pop of  0Mn 5fyz^2    0.00000
pop of  0Mn 5fz^3     0.00000
pop of  0Mn 5fxz^2    0.00000
pop of  0Mn 5fzx^2    0.00000
pop of  0Mn 5fx^3     0.00000
pop of  0Mn 6fy^3     0.00000
pop of  0Mn 6fxyz     0.00000
pop of  0Mn 6fyz^2    0.00000
pop of  0Mn 6fz^3     0.00000
pop of  0Mn 6fxz^2    0.00000
pop of  0Mn 6fzx^2    0.00000
pop of  0Mn 6fx^3     0.00000
pop of  0Mn 5g-4      0.00000
pop of  0Mn 5g-3      0.00000
pop of  0Mn 5g-2      0.00000
pop of  0Mn 5g-1      0.00000
pop of  0Mn 5g 0      0.00000
pop of  0Mn 5g 1      0.00000
pop of  0Mn 5g 2      0.00000
pop of  0Mn 5g 3      0.00000
pop of  0Mn 5g 4      0.00000
pop of  0Mn 6g-4      0.00000
pop of  0Mn 6g-3      0.00000
pop of  0Mn 6g-2      0.00000
pop of  0Mn 6g-1      0.00000
pop of  0Mn 6g 0      0.00000
pop of  0Mn 6g 1      0.00000
pop of  0Mn 6g 2      0.00000
pop of  0Mn 6g 3      0.00000
pop of  0Mn 6g 4      0.00000
 ** Mulliken atomic charges  **
charge of  0Mn =      1.00000

******** <class 'pyscf.mcscf.mc1step.CASSCF'> flags ********
CAS (6e+0e, 6o), ncore = 4, nvir = 78
max_cycle_macro = 50
max_cycle_micro = 4
conv_tol = 1e-07
conv_tol_grad = None
orbital rotation max_stepsize = 0.02
augmented hessian ah_max_cycle = 30
augmented hessian ah_conv_tol = 1e-12
augmented hessian ah_linear dependence = 1e-14
augmented hessian ah_level shift = 0
augmented hessian ah_start_tol = 2.5
augmented hessian ah_start_cycle = 3
augmented hessian ah_grad_trust_region = 3
kf_trust_region = 3
kf_interval = 4
ci_response_space = 4
ci_grad_trust_region = 3
with_dep4 0
natorb = False
canonicalization = True
sorting_mo_energy = False
chkfile = ./scratch/129739/tmpVfVefB
max_memory 4000 MB (current use 221 MB)
internal_rotation = False

******** SHCI flags ********
executable             = /home/bamu3429/softwares/dice/Dice
mpiprefix              = srun -n20
scratchDirectory       = ./scratch/129739
integralFile           = ./FCIDUMP
configFile             = ./input.dat
outputFile             = ./output.dat
maxIter                = 6
sweep_iter             = []
sweep_epsilon          = []
nPTiter                = 0
Stochastic             = True
fullrestart            = False
restart                = False
num_thrds              = 12
memory                 = None

CASCI E = -103.298800706365  S^2 = 12.0000000
Set conv_tol_grad to 0.000316228
macro iter 1 (1 JK  1 micro), CASSCF E = -103.298800706365  dE = 0  S^2 = 12.0000000
               |grad[o]|=4.1e-06  |grad[c]|= None  |ddm|=    0
1-step CASSCF converged in 1 macro (1 JK 1 micro) steps
CASSCF canonicalization
CASSCF energy = -103.298800706365


--------------------------------------------------
                 ICMPSPT CALCULATION              
--------------------------------------------------

Perturbation type: MRLCC
With fully internally contracted scheme
With third order correction

Preparing necessary RDMs
......production of RDMs took       1.99 sec
Reading binary 4RDM from DICE
......reading the RDM took          1.00 sec

(GOOD) Trace 4RDM:    360.0 =    6*    5*    4*    3
(GOOD) Trace 3RDM:    120.0 =    6*    5*    4
(GOOD) Trace 2RDM:     30.0 =    6*    5
(GOOD) Trace 1RDM:      6.0 =    6

Producing the integrals
......production of INT took      86.73 sec

Energy_core =  -88.45250239
Energy      = -103.29880071

WARNING: Have to use natural orbitals from CAASCF
         offdiagonal elements:    0.79081598

Basic ingredients written to int/
......savings of INGREDIENTS took      17.49 sec

Second-order:
perturber CCVV --        -0.097636608
perturber CCAV --        -0.046000686
perturber ACVV --        -0.155545361
perturber CCAA --        -0.028477655
perturber AAVV --        -0.093588895
perturber CAAV --        -0.117753855
perturber AAAV --        -0.000000000
perturber AAAC --        -0.000000000
Total:                   -0.539003062

Third-order:              0.002855950

Total PT       --        -0.536147112

