 &FCI NORB=9 ,NELEC=9 ,MS2=3,
  ORBSYM=1,1,1,1,1,1,1,1,1,
  ISYM=1,
 &END
  6.499096369204e-01    1  1  1  1
  2.923933759022e-02    2  1  2  1
  5.885893359613e-01    2  2  1  1
  6.531598614082e-01    2  2  2  2
  2.923933759022e-02    3  1  3  1
  1.255594302344e-12    3  2  2  2
  2.926608805839e-02    3  2  3  2
  5.885893359613e-01    3  3  1  1
  5.946276852530e-01    3  3  2  2
 -1.257767393265e-12    3  3  3  2
  6.531598614082e-01    3  3  3  3
  1.542776213528e-02    4  1  1  1
  6.109496373755e-03    4  1  2  2
  6.109496373755e-03    4  1  3  3
  8.275994273035e-03    4  1  4  1
 -1.788732459498e-03    4  2  2  1
 -1.733412351029e-06    4  2  3  1
  1.987352178677e-03    4  2  4  2
  1.733412351030e-06    4  3  2  1
 -1.788732459498e-03    4  3  3  1
  1.987352178677e-03    4  3  4  3
  2.546949902632e-01    4  4  1  1
  2.314501156052e-01    4  4  2  2
  2.314501156052e-01    4  4  3  3
  1.207784457948e-02    4  4  4  1
  2.827581635725e-01    4  4  4  4
  2.981155919964e-04    5  1  2  2
  2.196147766653e-04    5  1  3  2
 -2.981155919960e-04    5  1  3  3
  9.518867985468e-03    5  1  5  1
 -1.478298073043e-03    5  2  2  1
 -1.137201580849e-03    5  2  3  1
  4.937677130628e-04    5  2  4  2
  3.820089974587e-04    5  2  4  3
  4.915014107343e-03    5  2  5  2
 -1.137201580849e-03    5  3  2  1
  1.478298073043e-03    5  3  3  1
  3.820089974586e-04    5  3  4  2
 -4.937677130628e-04    5  3  4  3
  4.915014107343e-03    5  3  5  3
  2.010493512101e-03    5  4  2  2
  1.552913731687e-03    5  4  3  2
 -2.010493512100e-03    5  4  3  3
  4.638080342183e-03    5  4  5  1
  1.209626374493e-02    5  4  5  4
  4.111757045847e-01    5  5  1  1
  3.458853380282e-01    5  5  2  2
  3.458853380282e-01    5  5  3  3
  4.450849549874e-02    5  5  4  1
  3.488803065460e-01    5  5  4  4
  7.084047609356e-01    5  5  5  5
 -2.196147196069e-04    6  1  2  2
  2.981155940604e-04    6  1  3  2
  2.196147196070e-04    6  1  3  3
 -7.692652984753e-10    6  1  5  1
 -2.057730191252e-08    6  1  5  4
  9.518866692273e-03    6  1  6  1
  1.137201881157e-03    6  2  2  1
 -1.478297567806e-03    6  2  3  1
 -3.820090401592e-04    6  2  4  2
  4.937677855076e-04    6  2  4  3
  8.471161243020e-11    6  2  5  2
 -2.376563894622e-03    6  2  5  3
  4.915014264106e-03    6  2  6  2
 -1.478297567806e-03    6  3  2  1
 -1.137201881157e-03    6  3  3  1
  4.937677855076e-04    6  3  4  2
  3.820090401592e-04    6  3  4  3
  2.376563894622e-03    6  3  5  2
  8.471161065257e-11    6  3  5  3
  4.915014264106e-03    6  3  6  3
 -1.552913577483e-03    6  4  2  2
  2.010494222922e-03    6  4  3  2
  1.552913577483e-03    6  4  3  3
  2.063560752304e-08    6  4  5  1
  1.803663347837e-09    6  4  5  4
  4.638080363050e-03    6  4  6  1
  1.209626678804e-02    6  4  6  4
 -1.001917782868e-08    6  5  1  1
 -5.900404673923e-09    6  5  2  2
 -5.900404675903e-09    6  5  3  3
 -2.392052134096e-09    6  5  4  1
 -3.656956763394e-09    6  5  4  4
 -2.486191203801e-08    6  5  5  5
  1.500286665723e-02    6  5  6  5
  4.111756879057e-01    6  6  1  1
  3.458853285375e-01    6  6  2  2
  3.458853285375e-01    6  6  3  3
  4.450849132711e-02    6  6  4  1
  3.488802998948e-01    6  6  4  4
  6.783989843992e-01    6  6  5  5
 -2.486190831299e-08    6  6  6  5
  7.084046744918e-01    6  6  6  6
  8.493385660516e-04    7  1  2  1
 -9.471384219464e-03    7  1  3  1
 -3.660466281561e-05    7  1  4  2
  4.254896580201e-04    7  1  4  3
 -1.009855720687e-03    7  1  5  2
  1.607867733015e-03    7  1  5  3
 -1.607871797505e-03    7  1  6  2
 -1.009853423590e-03    7  1  6  3
  1.298436606396e-02    7  1  7  1
  1.076436051371e-02    7  2  1  1
  1.553603050142e-02    7  2  2  2
 -1.164167088701e-02    7  2  3  2
  1.344107978538e-02    7  2  3  3
 -1.356636402899e-03    7  2  4  1
 -3.477629520163e-03    7  2  4  4
  9.733457710671e-04    7  2  5  1
  1.354247611494e-03    7  2  5  4
 -8.453293581219e-03    7  2  5  5
  1.552676199569e-03    7  2  6  1
  2.158361504392e-03    7  2  6  4
 -1.104066475557e-09    7  2  6  5
 -8.453285301552e-03    7  2  6  6
  1.296867619834e-02    7  2  7  2
 -1.170447122525e-01    7  3  1  1
 -1.463882134879e-01    7  3  2  2
  1.047475095814e-03    7  3  3  2
 -1.696715494332e-01    7  3  3  3
  1.497225267922e-02    7  3  4  1
  3.845081256684e-02    7  3  4  4
 -1.552683813035e-03    7  3  5  1
 -2.158364750005e-03    7  3  5  4
  9.401222337059e-02    7  3  5  5
  9.733501670260e-04    7  3  6  1
  1.354249626358e-03    7  3  6  4
 -8.276327845218e-09    7  3  6  5
  9.401221221721e-02    7  3  6  6
 -1.215376091640e-02    7  3  7  2
  1.447598986812e-01    7  3  7  3
  7.254793991496e-05    7  4  2  1
 -7.476301324550e-04    7  4  3  1
 -2.845248121043e-04    7  4  4  2
  3.112216398532e-03    7  4  4  3
  2.342472833179e-04    7  4  5  2
 -3.714001921191e-04    7  4  5  3
  3.713993693460e-04    7  4  6  2
  2.342478161984e-04    7  4  6  3
 -9.948553761582e-05    7  4  7  1
  6.302786435912e-03    7  4  7  4
 -1.842969006537e-03    7  5  2  1
  2.909067316458e-03    7  5  3  1
  5.165914912014e-04    7  5  4  2
 -8.127235593639e-04    7  5  4  3
 -7.257964895260e-04    7  5  5  2
  8.043867329521e-03    7  5  5  3
 -3.696216149461e-03    7  5  6  2
 -3.342520536374e-04    7  5  6  3
  1.993141533663e-03    7  5  7  1
 -7.334509626922e-04    7  5  7  4
  1.872225925414e-02    7  5  7  5
 -2.909084544959e-03    7  6  2  1
 -1.842959662430e-03    7  6  3  1
  8.127287641887e-04    7  6  4  2
  5.165887288321e-04    7  6  4  3
  3.696203614818e-03    7  6  5  2
  3.342201268764e-04    7  6  5  3
 -7.257653383858e-04    7  6  6  2
  8.043854205988e-03    7  6  6  3
 -1.007325020736e-03    7  6  7  1
  3.739301454097e-04    7  6  7  4
 -4.625431421875e-09    7  6  7  5
  1.872225490299e-02    7  6  7  6
  5.122633578508e-01    7  7  1  1
  4.712791289901e-01    7  7  2  2
 -2.791271281984e-03    7  7  3  2
  5.013015885357e-01    7  7  3  3
  2.951501685851e-02    7  7  4  1
  3.010173782995e-01    7  7  4  4
 -4.307485242097e-03    7  7  5  1
 -4.855219814269e-03    7  7  5  4
  5.306768602791e-01    7  7  5  5
  2.187342710237e-03    7  7  6  1
  2.468416317817e-03    7  7  6  4
 -1.837810867512e-08    7  7  6  5
  5.306768307439e-01    7  7  6  6
  2.291767226121e-03    7  7  7  2
 -2.359449480725e-02    7  7  7  3
  5.578122508984e-01    7  7  7  7
  9.471384219464e-03    8  1  2  1
  8.493385660516e-04    8  1  3  1
 -4.254896580201e-04    8  1  4  2
 -3.660466281560e-05    8  1  4  3
  1.607867733015e-03    8  1  5  2
  1.009855720687e-03    8  1  5  3
 -1.009853423590e-03    8  1  6  2
  1.607871797505e-03    8  1  6  3
  5.671636988707e-07    8  1  7  4
  1.007311685589e-03    8  1  7  5
  1.993122806049e-03    8  1  7  6
  1.298436606396e-02    8  1  8  1
  1.170447122525e-01    8  2  1  1
  1.696715494332e-01    8  2  2  2
  1.047475095812e-03    8  2  3  2
  1.463882134879e-01    8  2  3  3
 -1.497225267922e-02    8  2  4  1
 -3.845081256684e-02    8  2  4  4
 -1.552683813034e-03    8  2  5  1
 -2.158364750005e-03    8  2  5  4
 -9.401222337059e-02    8  2  5  5
  9.733501670261e-04    8  2  6  1
  1.354249626357e-03    8  2  6  4
  8.276327845048e-09    8  2  6  5
 -9.401221221721e-02    8  2  6  6
  1.215376073586e-02    8  2  7  2
 -1.210456960780e-01    8  2  7  3
  2.123253886096e-02    8  2  7  7
  1.447598986812e-01    8  2  8  2
  1.076436051371e-02    8  3  1  1
  1.344107978538e-02    8  3  2  2
  1.164167088701e-02    8  3  3  2
  1.553603050142e-02    8  3  3  3
 -1.356636402899e-03    8  3  4  1
 -3.477629520163e-03    8  3  4  4
 -9.733457710670e-04    8  3  5  1
 -1.354247611494e-03    8  3  5  4
 -8.453293581219e-03    8  3  5  5
 -1.552676199569e-03    8  3  6  1
 -2.158361504392e-03    8  3  6  4
 -1.104066455918e-09    8  3  6  5
 -8.453285301552e-03    8  3  6  6
 -1.074550726855e-02    8  3  7  2
 -1.215376073586e-02    8  3  7  3
  2.042322211560e-03    8  3  7  7
  1.215376091640e-02    8  3  8  2
  1.296867619834e-02    8  3  8  3
  7.476301324550e-04    8  4  2  1
  7.254793991498e-05    8  4  3  1
 -3.112216398532e-03    8  4  4  2
 -2.845248121043e-04    8  4  4  3
 -3.714001921191e-04    8  4  5  2
 -2.342472833178e-04    8  4  5  3
  2.342478161985e-04    8  4  6  2
 -3.713993693461e-04    8  4  6  3
 -5.671636988672e-07    8  4  7  1
 -3.739414445081e-04    8  4  7  5
 -7.334679538709e-04    8  4  7  6
 -9.948553761583e-05    8  4  8  1
  6.302786435912e-03    8  4  8  4
  2.909067316458e-03    8  5  2  1
  1.842969006537e-03    8  5  3  1
 -8.127235593639e-04    8  5  4  2
 -5.165914912014e-04    8  5  4  3
 -8.043867329521e-03    8  5  5  2
 -7.257964895261e-04    8  5  5  3
  3.342520536374e-04    8  5  6  2
 -3.696216149461e-03    8  5  6  3
  1.007311685589e-03    8  5  7  1
 -3.739414445081e-04    8  5  7  4
 -8.413176227791e-03    8  5  7  6
 -1.993141533663e-03    8  5  8  1
  7.334509626923e-04    8  5  8  4
  1.872225925414e-02    8  5  8  5
 -1.842959662430e-03    8  6  2  1
  2.909084544959e-03    8  6  3  1
  5.165887288321e-04    8  6  4  2
 -8.127287641887e-04    8  6  4  3
 -3.342201268764e-04    8  6  5  2
  3.696203614818e-03    8  6  5  3
 -8.043854205988e-03    8  6  6  2
 -7.257653383859e-04    8  6  6  3
  1.993122806049e-03    8  6  7  1
 -7.334679538709e-04    8  6  7  4
  8.413176227791e-03    8  6  7  5
  1.007325020736e-03    8  6  8  1
 -3.739301454097e-04    8  6  8  4
 -4.625431420577e-09    8  6  8  5
  1.872225490299e-02    8  6  8  6
  2.791271488463e-03    8  7  2  2
 -1.501122479584e-02    8  7  3  2
 -2.791271488463e-03    8  7  3  3
 -2.187344251768e-03    8  7  5  1
 -2.468416385751e-03    8  7  5  4
 -4.307487454179e-03    8  7  6  1
 -4.855220880748e-03    8  7  6  4
  1.180996479711e-03    8  7  7  2
  1.247210196175e-04    8  7  7  3
 -1.988758518561e-09    8  7  7  7
  1.247210196177e-04    8  7  8  2
 -1.180996479711e-03    8  7  8  3
  1.863467501402e-02    8  7  8  7
  5.122633578508e-01    8  8  1  1
  5.013015885357e-01    8  8  2  2
  2.791271281983e-03    8  8  3  2
  4.712791289901e-01    8  8  3  3
  2.951501685851e-02    8  8  4  1
  3.010173782995e-01    8  8  4  4
  4.307485242097e-03    8  8  5  1
  4.855219814269e-03    8  8  5  4
  5.306768602791e-01    8  8  5  5
 -2.187342710237e-03    8  8  6  1
 -2.468416317816e-03    8  8  6  4
 -1.837810867903e-08    8  8  6  5
  5.306768307439e-01    8  8  6  6
  2.042322211560e-03    8  8  7  2
 -2.123253886097e-02    8  8  7  3
  5.205428642473e-01    8  8  7  7
  2.359449480725e-02    8  8  8  2
  2.291767226121e-03    8  8  8  3
  1.988757362225e-09    8  8  8  7
  5.578122508984e-01    8  8  8  8
  1.440586090960e-01    9  1  1  1
  1.584379413741e-01    9  1  2  2
  1.584379413741e-01    9  1  3  3
 -2.078861594766e-02    9  1  4  1
 -5.413755116639e-02    9  1  4  4
 -1.324388827780e-01    9  1  5  5
  7.391576408864e-09    9  1  6  5
 -1.324388695314e-01    9  1  6  6
  1.260944761098e-02    9  1  7  2
 -1.382414263393e-01    9  1  7  3
  1.848957872279e-04    9  1  7  7
  1.382414263393e-01    9  1  8  2
  1.260944761098e-02    9  1  8  3
  1.848957872283e-04    9  1  8  8
  1.890542056641e-01    9  1  9  1
  1.447225400429e-02    9  2  2  1
 -1.349444140615e-05    9  2  3  1
 -6.572087305608e-04    9  2  4  2
  2.046229792168e-06    9  2  4  3
 -8.465345045302e-04    9  2  5  2
 -6.668983683122e-04    9  2  5  3
  6.668984459115e-04    9  2  6  2
 -8.465345734588e-04    9  2  6  3
  8.707713560576e-04    9  2  7  1
  4.653053052948e-05    9  2  7  4
  4.226841526654e-04    9  2  7  5
  6.875591839475e-04    9  2  7  6
  9.656334233784e-03    9  2  8  1
  5.023048146112e-04    9  2  8  4
 -6.875319588637e-04    9  2  8  5
  4.226683414506e-04    9  2  8  6
  1.526114243175e-02    9  2  9  2
  1.349444140598e-05    9  3  2  1
  1.447225400429e-02    9  3  3  1
 -2.046229792171e-06    9  3  4  2
 -6.572087305608e-04    9  3  4  3
 -6.668983683121e-04    9  3  5  2
  8.465345045302e-04    9  3  5  3
 -8.465345734588e-04    9  3  6  2
 -6.668984459116e-04    9  3  6  3
 -9.656334233784e-03    9  3  7  1
 -5.023048146112e-04    9  3  7  4
 -6.875319588637e-04    9  3  7  5
  4.226683414506e-04    9  3  7  6
  8.707713560576e-04    9  3  8  1
  4.653053052944e-05    9  3  8  4
 -4.226841526654e-04    9  3  8  5
 -6.875591839475e-04    9  3  8  6
  1.526114243175e-02    9  3  9  3
 -5.711305436190e-02    9  4  1  1
 -4.278482428761e-02    9  4  2  2
 -4.278482428761e-02    9  4  3  3
 -1.263349513822e-02    9  4  4  1
 -1.688221631067e-02    9  4  4  4
 -8.048096047484e-02    9  4  5  5
  4.600039453511e-09    9  4  6  5
 -8.048095258647e-02    9  4  6  6
  8.509327447988e-04    9  4  7  2
 -9.641662912505e-03    9  4  7  3
 -6.949207347229e-02    9  4  7  7
  9.641662912505e-03    9  4  8  2
  8.509327447989e-04    9  4  8  3
 -6.949207347229e-02    9  4  8  8
  1.676264383098e-02    9  4  9  1
  2.620806738896e-02    9  4  9  4
 -1.522026446097e-03    9  5  2  2
 -1.166660635051e-03    9  5  3  2
  1.522026446097e-03    9  5  3  3
 -1.335662514149e-02    9  5  5  1
 -7.034361806347e-03    9  5  5  4
 -1.434855258296e-08    9  5  6  1
 -2.444370181300e-08    9  5  6  4
 -1.545122845754e-03    9  5  7  2
  2.467460830213e-03    9  5  7  3
  6.414397729350e-03    9  5  7  7
  2.467460830213e-03    9  5  8  2
  1.545122845754e-03    9  5  8  3
  3.260176164842e-03    9  5  8  7
 -6.414397729350e-03    9  5  8  8
  2.072595856886e-02    9  5  9  5
  1.166660683491e-03    9  6  2  2
 -1.522026387289e-03    9  6  3  2
 -1.166660683491e-03    9  6  3  3
  1.641857893272e-08    9  6  5  1
  2.443645548127e-08    9  6  5  4
 -1.335662334385e-02    9  6  6  1
 -7.034361789110e-03    9  6  6  4
 -2.467445983311e-03    9  6  7  2
 -1.545131472038e-03    9  6  7  3
 -3.260187858884e-03    9  6  7  7
 -1.545131472038e-03    9  6  8  2
  2.467445983311e-03    9  6  8  3
  6.414381593885e-03    9  6  8  7
  3.260187858885e-03    9  6  8  8
 -1.611490402073e-09    9  6  9  5
  2.072595576792e-02    9  6  9  6
  1.399797035561e-03    9  7  2  1
 -1.524568242907e-02    9  7  3  1
 -3.361681801739e-05    9  7  4  2
  3.467876081810e-04    9  7  4  3
  8.177725908759e-04    9  7  5  2
 -1.305128589568e-03    9  7  5  3
  1.305136771397e-03    9  7  6  2
  8.177678392030e-04    9  7  6  3
  1.895164642266e-03    9  7  7  1
 -8.425114270033e-04    9  7  7  4
 -4.086369122736e-03    9  7  7  5
  2.076039854826e-03    9  7  7  6
  8.571703772431e-06    9  7  8  1
 -2.638226363883e-06    9  7  8  4
 -2.076061075498e-03    9  7  8  5
 -4.086399027409e-03    9  7  8  6
  4.460181079499e-04    9  7  9  2
 -4.772784848871e-03    9  7  9  3
  1.658424290276e-02    9  7  9  7
  1.524568242907e-02    9  8  2  1
  1.399797035561e-03    9  8  3  1
 -3.467876081810e-04    9  8  4  2
 -3.361681801741e-05    9  8  4  3
 -1.305128589568e-03    9  8  5  2
 -8.177725908758e-04    9  8  5  3
  8.177678392030e-04    9  8  6  2
 -1.305136771397e-03    9  8  6  3
 -8.571703772447e-06    9  8  7  1
  2.638226363869e-06    9  8  7  4
 -2.076061075498e-03    9  8  7  5
 -4.086399027409e-03    9  8  7  6
  1.895164642266e-03    9  8  8  1
 -8.425114270033e-04    9  8  8  4
  4.086369122736e-03    9  8  8  5
 -2.076039854826e-03    9  8  8  6
  4.772784848871e-03    9  8  9  2
  4.460181079498e-04    9  8  9  3
  1.658424290276e-02    9  8  9  8
  5.608672739646e-01    9  9  1  1
  4.847209077605e-01    9  9  2  2
  4.847209077605e-01    9  9  3  3
  3.468140367852e-02    9  9  4  1
  3.138259633789e-01    9  9  4  4
  5.571944754325e-01    9  9  5  5
 -1.866591831085e-08    9  9  6  5
  5.571944434097e-01    9  9  6  6
  1.645758446467e-03    9  9  7  2
 -1.656481435338e-02    9  9  7  3
  5.537374979747e-01    9  9  7  7
  1.656481435338e-02    9  9  8  2
  1.645758446467e-03    9  9  8  3
  5.537374979747e-01    9  9  8  8
 -1.486717420669e-03    9  9  9  1
 -8.034628307425e-02    9  9  9  4
  6.248482581554e-01    9  9  9  9
 -4.462143623383e+00    1  1  0  0
 -4.287588597124e+00    2  2  0  0
 -4.287588597124e+00    3  3  0  0
 -1.504541566263e-01    4  1  0  0
 -2.382841878619e+00    4  4  0  0
 -3.689620975130e+00    5  5  0  0
  7.381409282244e-08    6  5  0  0
 -3.689620850185e+00    6  6  0  0
 -3.612682516319e-02    7  2  0  0
  3.997237740647e-01    7  3  0  0
 -3.783225412781e+00    7  7  0  0
 -3.997237740647e-01    8  2  0  0
 -3.612682516320e-02    8  3  0  0
 -3.783225412781e+00    8  8  0  0
 -3.929678032304e-01    9  1  0  0
  4.009712231735e-01    9  4  0  0
 -3.824459596224e+00    9  9  0  0
    -66.538666907677   0  0  0  0
