 &FCI NORB=6 ,NELEC=4 ,MS2=2,
  ORBSYM=1,1,1,1,1,1,
  ISYM=1,
 &END
  2.450938929742e-01    1  1  1  1
  8.420498944378e-03    2  1  2  1
  3.072629702503e-01    2  2  1  1
  2.610935898606e-12    2  2  2  1
  6.618929801709e-01    2  2  2  2
 -4.323987583874e-12    3  1  2  2
  8.420498944378e-03    3  1  3  1
 -4.272980058882e-12    3  2  2  1
 -2.400396868954e-12    3  2  3  1
  2.569104377005e-02    3  2  3  2
  3.072629702503e-01    3  3  1  1
 -2.435080865659e-12    3  3  2  1
  6.105108926308e-01    3  3  2  2
  4.558429017563e-12    3  3  3  1
  6.618929801709e-01    3  3  3  3
  5.706421148640e-02    4  1  4  1
  6.970567747193e-12    4  2  4  1
  6.120840423769e-03    4  2  4  2
  5.062891418730e-12    4  3  4  1
 -4.670945156286e-03    4  3  4  2
  7.167893034064e-03    4  3  4  3
  2.422279261962e-01    4  4  1  1
  3.783762301474e-12    4  4  2  1
  2.957810475806e-01    4  4  2  2
  2.756790699861e-12    4  4  3  1
 -6.621410513533e-03    4  4  3  2
  2.972653295715e-01    4  4  3  3
  2.588902302842e-01    4  4  4  4
 -5.299989603852e-12    5  1  4  2
  7.409537031622e-12    5  1  4  3
  5.706421148640e-02    5  1  5  1
 -5.310884304754e-12    5  2  4  1
 -4.670945156286e-03    5  2  4  2
  3.279544344317e-03    5  2  4  3
 -7.031727031431e-12    5  2  5  1
  7.167893034064e-03    5  2  5  2
  7.417114281088e-12    5  3  4  1
 -2.232491733335e-03    5  3  4  2
  4.670945156286e-03    5  3  4  3
 -5.118199813567e-12    5  3  5  1
  4.670945156286e-03    5  3  5  2
  6.120840423769e-03    5  3  5  3
 -2.885023327580e-12    5  4  2  1
 -6.621410513531e-03    5  4  2  2
  4.031920222742e-12    5  4  3  1
  7.421409965364e-04    5  4  3  2
  6.621410513533e-03    5  4  3  3
 -2.019130448368e-12    5  4  4  4
  1.531222753394e-02    5  4  5  4
  2.422279261962e-01    5  5  1  1
 -3.794456591940e-12    5  5  2  1
  2.972653295715e-01    5  5  2  2
 -2.758097513515e-12    5  5  3  1
  6.621410513533e-03    5  5  3  2
  2.957810475806e-01    5  5  3  3
  2.282657752172e-01    5  5  4  4
  2.020173503063e-12    5  5  5  4
  2.588902302842e-01    5  5  5  5
 -1.174338296968e-02    6  1  4  2
  1.313312686009e-02    6  1  4  3
  1.313312686009e-02    6  1  5  2
  1.174338296968e-02    6  1  5  3
  5.408784355965e-02    6  1  6  1
 -1.230403269534e-02    6  2  4  1
 -4.916764290797e-12    6  2  4  2
  1.180260152949e-12    6  2  4  3
  1.376013657444e-02    6  2  5  1
 -4.949192819595e-12    6  2  5  3
  1.196281673990e-02    6  2  6  2
  1.376013657444e-02    6  3  4  1
  4.989627530525e-12    6  3  4  3
  1.230403269534e-02    6  3  5  1
 -4.911345071222e-12    6  3  5  2
  1.241080199501e-12    6  3  5  3
  1.196281673990e-02    6  3  6  3
 -6.410064743678e-03    6  4  2  1
 -7.415291941411e-12    6  4  2  2
  7.168652990061e-03    6  4  3  1
  1.628382252215e-12    6  4  3  2
  7.415096075862e-12    6  4  3  3
  1.054634613584e-12    6  4  5  4
  1.724256543815e-02    6  4  6  4
  7.168652990061e-03    6  5  2  1
 -1.639006549195e-12    6  5  2  2
  6.410064743678e-03    6  5  3  1
 -7.396961302464e-12    6  5  3  2
  1.607572558468e-12    6  5  3  3
 -1.209474216008e-12    6  5  5  5
  1.724256543815e-02    6  5  6  5
  2.426260500542e-01    6  6  1  1
  3.074815171749e-01    6  6  2  2
  3.074815171749e-01    6  6  3  3
  2.318186140038e-01    6  6  4  4
  2.318186140038e-01    6  6  5  5
  2.591591467173e-01    6  6  6  6
 -1.072042904940e+00    1  1  0  0
 -1.611168075511e+00    2  2  0  0
 -1.611168075511e+00    3  3  0  0
 -9.267960760767e-01    4  4  0  0
 -9.267960760767e-01    5  5  0  0
 -9.331945307697e-01    6  6  0  0
    -54.187479340462   0  0  0  0
