#INFO: **** input file is /projects/bamu3429/BENCHMARK/fresh_atoms/MRPT/vqz/atoms/Ti_0/mrpt.py ****
import json
from pyscf import gto,scf,mcscf, fci, lo, ci, cc
from pyscf.scf import ROHF, UHF,ROKS
import numpy as np
import pandas as pd

# THIS IS WERE IT STARTS ====================================

df=json.load(open("../../../trail.json"))

spins={'Sc':1, 'Ti':2, 'V':3, 'Cr':6, 'Mn':5, 'Fe':4, 'Cu':1}

nd={'Sc':(1,0), 'Ti':(2,0), 'V':(3,0), 'Cr':(5,0), 'Mn':(5,0), 'Fe':(5,1), 'Cu':(5,5)}

cas={'Sc':3, 'Ti':4, 'V':5, 'Cr':6, 'Mn':7, 'Fe':8, 'Cu':11}

datacsv={}
for nm in ['atom','charge','method','basis','pseudopotential','hf',
           'totalenergy','totalenergy-stocherr','totalenergy-syserr']:
  datacsv[nm]=[]

basis='vqz'
el='Ti'
charge=0

mol=gto.Mole()
mol.ecp={}
mol.basis={}
mol.ecp[el]=gto.basis.parse_ecp(df[el]['ecp'])
mol.basis[el]=gto.basis.parse(df[el][basis])
mol.charge=charge
if el == 'Cr' or el == 'Cu':
  mol.spin=spins[el]-charge
else:
  mol.spin=spins[el]+charge
mol.build(atom="%s 0. 0. 0."%el,verbose=4)

m=ROHF(mol)
m.level_shift=1000.0
dm=m.from_chk("../../../../HF/atoms/"+el+basis+str(charge)+".chk")
hf=m.kernel(dm)
m.analyze()

from pyscf.shciscf import shci
mc = shci.SHCISCF(m, 6, cas[el]-charge)
#mc.fcisolver.conv_tol = 1e-14
mc.fcisolver.mpiprefix="mpirun -np 28"
mc.fcisolver.num_thrds=12
mc.verbose = 4
cas=mc.kernel()[0]
 
from pyscf.icmpspt import icmpspt
pt=icmpspt.icmpspt(mc,rdmM=500, PTM=1000,\
                          pttype="MRLCC",\
                          third_order=True,\
                          fully_ic=True,\
                          do_dm4=True)

datacsv['atom'].append(el)
datacsv['charge'].append(charge)
datacsv['method'].append('MRPT')
datacsv['basis'].append(basis)
datacsv['pseudopotential'].append('trail')
datacsv['hf'].append(hf)
datacsv['totalenergy'].append(cas+pt)
datacsv['totalenergy-stocherr'].append(0.0)
datacsv['totalenergy-syserr'].append(0.0)
pd.DataFrame(datacsv).to_csv(el+".csv",index=False)

#INFO: ******************** input file end ********************


System: ('Linux', 'bnode0308.rc.int.colorado.edu', '3.10.0-514.41.1.el7.x86_64', '#1 SMP Wed Jan 17 10:26:16 EST 2018', 'x86_64', 'x86_64')  Threads 1
Python 2.7.11 (default, Mar 22 2016, 01:42:54) 
[GCC Intel(R) C++ gcc 4.8 mode]
numpy 1.11.1  scipy 0.17.1
Date: Mon Mar 26 12:13:22 2018
PySCF version 1.4
PySCF path  /projects/bamu3429/softwares/pyscf_uptodate/pyscf
GIT ORIG_HEAD e2292e6edec2b0e0024c21b81de03db1d7bd4121
GIT HEAD      ref: refs/heads/master
GIT master branch  f3591ef22170896a4cdc2aadaa6f5da388ffcadb

[INPUT] VERBOSE 4
[INPUT] num atoms = 1
[INPUT] num electrons = 12
[INPUT] charge = 0
[INPUT] spin (= nelec alpha-beta = 2S) = 2
[INPUT] symmetry False subgroup None
[INPUT]  1 Ti     0.000000000000   0.000000000000   0.000000000000 AA    0.000000000000   0.000000000000   0.000000000000 Bohr
[INPUT] ---------------- BASIS SET ---------------- 
[INPUT] l, kappa, [nprim/nctr], expnt,             c_1 c_2 ...
[INPUT] Ti
[INPUT] 0    0    [12   /1   ]  37.13946663       0.002411
                                11.66061728       -0.575963
                                8.9751153         2.645948
                                7.67011905        -2.362876
                                3.44923714        -0.059842
                                1.58705441        0.244002
                                0.95387432        0.58593
                                0.47300537        0.378609
                                0.2203041         0.031099
                                0.10349534        0.004602
                                0.04822069        0.000609
                                0.0226639         0.001044
[INPUT] 0    0    [12   /1   ]  37.13946663       -0.000363
                                11.66061728       0.129591
                                8.9751153         -0.625086
                                7.67011905        0.572499
                                3.44923714        0.016652
                                1.58705441        -0.073052
                                0.95387432        -0.203234
                                0.47300537        -0.251131
                                0.2203041         -0.044619
                                0.10349534        0.38905
                                0.04822069        0.591401
                                0.0226639         0.208165
[INPUT] 0    0    [12   /1   ]  37.13946663       -0.001115
                                11.66061728       0.51967
                                8.9751153         -2.657294
                                7.67011905        2.533238
                                3.44923714        0.024774
                                1.58705441        -1.195577
                                0.95387432        -0.355978
                                0.47300537        0.518177
                                0.2203041         0.914245
                                0.10349534        0.348281
                                0.04822069        -0.566441
                                0.0226639         -0.389331
[INPUT] 0    0    [12   /1   ]  37.13946663       -0.002329
                                11.66061728       0.799099
                                8.9751153         -4.200932
                                7.67011905        4.132106
                                3.44923714        -0.32722
                                1.58705441        -2.567932
                                0.95387432        1.125856
                                0.47300537        2.155366
                                0.2203041         -0.743551
                                0.10349534        -1.579371
                                0.04822069        0.515995
                                0.0226639         0.699247
[INPUT] 0    0    [12   /1   ]  37.13946663       0.006064
                                11.66061728       -1.642157
                                8.9751153         9.19655
                                7.67011905        -9.630064
                                3.44923714        3.376611
                                1.58705441        2.286739
                                0.95387432        -6.165423
                                0.47300537        2.656283
                                0.2203041         1.918514
                                0.10349534        -2.202132
                                0.04822069        -0.293714
                                0.0226639         0.961713
[INPUT] 0    0    [1    /1   ]  0.0226639            1
[INPUT] 0    0    [1    /1   ]  0.01065211           1
[INPUT] 1    0    [12   /1   ]  44.38520603       0.000557
                                23.85822456       -0.004857
                                12.73507149       0.027448
                                6.00842867        -0.150306
                                3.96301478        0.092203
                                2.13751474        0.210744
                                1.20712576        0.397756
                                0.62000194        0.354359
                                0.30900057        0.130823
                                0.12918293        0.012952
                                0.05400711        -0.000125
                                0.02257859        0.000245
[INPUT] 1    0    [12   /1   ]  44.38520603       -7.7e-05
                                23.85822456       0.000906
                                12.73507149       -0.006126
                                6.00842867        0.038285
                                3.96301478        -0.027356
                                2.13751474        -0.059665
                                1.20712576        -0.115513
                                0.62000194        -0.130421
                                0.30900057        0.025358
                                0.12918293        0.394962
                                0.05400711        0.54831
                                0.02257859        0.169017
[INPUT] 1    0    [12   /1   ]  44.38520603       0.000289
                                23.85822456       -0.004068
                                12.73507149       0.031182
                                6.00842867        -0.242448
                                3.96301478        0.198909
                                2.13751474        0.720192
                                1.20712576        0.162963
                                0.62000194        -0.788053
                                0.30900057        -0.456042
                                0.12918293        0.594094
                                0.05400711        0.321239
                                0.02257859        -0.002282
[INPUT] 1    0    [12   /1   ]  44.38520603       0.000322
                                23.85822456       -0.006293
                                12.73507149       0.061433
                                6.00842867        -0.709428
                                3.96301478        1.230546
                                2.13751474        1.099591
                                1.20712576        -1.80149
                                0.62000194        -0.680724
                                0.30900057        1.665036
                                0.12918293        -0.194409
                                0.05400711        -0.605253
                                0.02257859        0.020232
[INPUT] 1    0    [12   /1   ]  44.38520603       -0.006431
                                23.85822456       0.02841
                                12.73507149       -0.038493
                                6.00842867        -0.726428
                                3.96301478        2.460211
                                2.13751474        -1.502353
                                1.20712576        -1.404761
                                0.62000194        2.497509
                                0.30900057        -1.029217
                                0.12918293        -0.611426
                                0.05400711        0.750291
                                0.02257859        -0.038783
[INPUT] 1    0    [1    /1   ]  0.02257859           1
[INPUT] 1    0    [1    /1   ]  0.00943936           1
[INPUT] 2    0    [10   /1   ]  29.31465998       -0.000519
                                13.63067536       -0.007186
                                8.04907964        0.095441
                                3.25682476        0.170565
                                1.474054          0.27882
                                0.66141289        0.324798
                                0.29673638        0.280135
                                0.13456087        0.172066
                                0.06095666        0.058237
                                0.02784531        0.004588
[INPUT] 2    0    [10   /1   ]  29.31465998       0.00281
                                13.63067536       -0.006479
                                8.04907964        -0.060988
                                3.25682476        -0.258291
                                1.474054          -0.49009
                                0.66141289        0.014554
                                0.29673638        0.352182
                                0.13456087        0.382358
                                0.06095666        0.172767
                                0.02784531        0.017366
[INPUT] 2    0    [10   /1   ]  29.31465998       0.007744
                                13.63067536       -0.037639
                                8.04907964        0.009879
                                3.25682476        -0.574581
                                1.474054          -0.215187
                                0.66141289        0.874455
                                0.29673638        0.174962
                                0.13456087        -0.439503
                                0.06095666        -0.344031
                                0.02784531        -0.031851
[INPUT] 2    0    [10   /1   ]  29.31465998       -0.001945
                                13.63067536       0.029001
                                8.04907964        -0.27627
                                3.25682476        -0.946826
                                1.474054          1.28698
                                0.66141289        0.065529
                                0.29673638        -0.957094
                                0.13456087        0.325461
                                0.06095666        0.369531
                                0.02784531        0.058554
[INPUT] 2    0    [1    /1   ]  0.02784531           1
[INPUT] 2    0    [1    /1   ]  0.01271987           1
[INPUT] 3    0    [1    /1   ]  2.750207             1
[INPUT] 3    0    [1    /1   ]  0.966241             1
[INPUT] 3    0    [1    /1   ]  0.339471             1
[INPUT] 3    0    [1    /1   ]  0.11926688           1
[INPUT] 4    0    [1    /1   ]  2.807857             1
[INPUT] 4    0    [1    /1   ]  1.018064             1
[INPUT] 4    0    [1    /1   ]  0.36912644           1
[INPUT] 5    0    [1    /1   ]  2.388057             1
[INPUT] 5    0    [1    /1   ]  0.8658542            1
nuclear repulsion = 0
number of shells = 29
number of NR pGTOs = 535
number of NR cGTOs = 135
basis = {'Ti': [[0, [37.13946663, 0.002411], [11.66061728, -0.575963], [8.9751153, 2.645948], [7.67011905, -2.362876], [3.44923714, -0.059842], [1.58705441, 0.244002], [0.95387432, 0.58593], [0.47300537, 0.378609], [0.2203041, 0.031099], [0.10349534, 0.004602], [0.04822069, 0.000609], [0.0226639, 0.001044]], [0, [37.13946663, -0.000363], [11.66061728, 0.129591], [8.9751153, -0.625086], [7.67011905, 0.572499], [3.44923714, 0.016652], [1.58705441, -0.073052], [0.95387432, -0.203234], [0.47300537, -0.251131], [0.2203041, -0.044619], [0.10349534, 0.38905], [0.04822069, 0.591401], [0.0226639, 0.208165]], [0, [37.13946663, -0.001115], [11.66061728, 0.51967], [8.9751153, -2.657294], [7.67011905, 2.533238], [3.44923714, 0.024774], [1.58705441, -1.195577], [0.95387432, -0.355978], [0.47300537, 0.518177], [0.2203041, 0.914245], [0.10349534, 0.348281], [0.04822069, -0.566441], [0.0226639, -0.389331]], [0, [37.13946663, -0.002329], [11.66061728, 0.799099], [8.9751153, -4.200932], [7.67011905, 4.132106], [3.44923714, -0.32722], [1.58705441, -2.567932], [0.95387432, 1.125856], [0.47300537, 2.155366], [0.2203041, -0.743551], [0.10349534, -1.579371], [0.04822069, 0.515995], [0.0226639, 0.699247]], [0, [37.13946663, 0.006064], [11.66061728, -1.642157], [8.9751153, 9.19655], [7.67011905, -9.630064], [3.44923714, 3.376611], [1.58705441, 2.286739], [0.95387432, -6.165423], [0.47300537, 2.656283], [0.2203041, 1.918514], [0.10349534, -2.202132], [0.04822069, -0.293714], [0.0226639, 0.961713]], [0, [0.0226639, 1.0]], [0, [0.01065211, 1.0]], [1, [44.38520603, 0.000557], [23.85822456, -0.004857], [12.73507149, 0.027448], [6.00842867, -0.150306], [3.96301478, 0.092203], [2.13751474, 0.210744], [1.20712576, 0.397756], [0.62000194, 0.354359], [0.30900057, 0.130823], [0.12918293, 0.012952], [0.05400711, -0.000125], [0.02257859, 0.000245]], [1, [44.38520603, -7.7e-05], [23.85822456, 0.000906], [12.73507149, -0.006126], [6.00842867, 0.038285], [3.96301478, -0.027356], [2.13751474, -0.059665], [1.20712576, -0.115513], [0.62000194, -0.130421], [0.30900057, 0.025358], [0.12918293, 0.394962], [0.05400711, 0.54831], [0.02257859, 0.169017]], [1, [44.38520603, 0.000289], [23.85822456, -0.004068], [12.73507149, 0.031182], [6.00842867, -0.242448], [3.96301478, 0.198909], [2.13751474, 0.720192], [1.20712576, 0.162963], [0.62000194, -0.788053], [0.30900057, -0.456042], [0.12918293, 0.594094], [0.05400711, 0.321239], [0.02257859, -0.002282]], [1, [44.38520603, 0.000322], [23.85822456, -0.006293], [12.73507149, 0.061433], [6.00842867, -0.709428], [3.96301478, 1.230546], [2.13751474, 1.099591], [1.20712576, -1.80149], [0.62000194, -0.680724], [0.30900057, 1.665036], [0.12918293, -0.194409], [0.05400711, -0.605253], [0.02257859, 0.020232]], [1, [44.38520603, -0.006431], [23.85822456, 0.02841], [12.73507149, -0.038493], [6.00842867, -0.726428], [3.96301478, 2.460211], [2.13751474, -1.502353], [1.20712576, -1.404761], [0.62000194, 2.497509], [0.30900057, -1.029217], [0.12918293, -0.611426], [0.05400711, 0.750291], [0.02257859, -0.038783]], [1, [0.02257859, 1.0]], [1, [0.00943936, 1.0]], [2, [29.31465998, -0.000519], [13.63067536, -0.007186], [8.04907964, 0.095441], [3.25682476, 0.170565], [1.474054, 0.27882], [0.66141289, 0.324798], [0.29673638, 0.280135], [0.13456087, 0.172066], [0.06095666, 0.058237], [0.02784531, 0.004588]], [2, [29.31465998, 0.00281], [13.63067536, -0.006479], [8.04907964, -0.060988], [3.25682476, -0.258291], [1.474054, -0.49009], [0.66141289, 0.014554], [0.29673638, 0.352182], [0.13456087, 0.382358], [0.06095666, 0.172767], [0.02784531, 0.017366]], [2, [29.31465998, 0.007744], [13.63067536, -0.037639], [8.04907964, 0.009879], [3.25682476, -0.574581], [1.474054, -0.215187], [0.66141289, 0.874455], [0.29673638, 0.174962], [0.13456087, -0.439503], [0.06095666, -0.344031], [0.02784531, -0.031851]], [2, [29.31465998, -0.001945], [13.63067536, 0.029001], [8.04907964, -0.27627], [3.25682476, -0.946826], [1.474054, 1.28698], [0.66141289, 0.065529], [0.29673638, -0.957094], [0.13456087, 0.325461], [0.06095666, 0.369531], [0.02784531, 0.058554]], [2, [0.02784531, 1.0]], [2, [0.01271987, 1.0]], [3, [2.750207, 1.0]], [3, [0.966241, 1.0]], [3, [0.339471, 1.0]], [3, [0.11926688, 1.0]], [4, [2.807857, 1.0]], [4, [1.018064, 1.0]], [4, [0.36912644, 1.0]], [5, [2.388057, 1.0]], [5, [0.8658542, 1.0]]]}
ecp = {'Ti': [10, [[-1, [[], [[8.52499277, 12.0]], [[15.2433413, 2048.39512837], [9.82605516, -812.71625987], [13.73638629, -6663.62886396], [12.6545051, 5396.93874773]], [[7.54790686, 102.29991323]]]], [0, [[], [], [[6.07854372, -5355.67455847], [6.60870356, 4802.76911085], [5.40803832, 1304.66429039], [10.43037595, -1133.61681175], [18.40796253, -258.77562194], [15.384288, 672.53886697]], []]], [1, [[], [], [[9.60319864, 56981.17339652], [9.66270511, -57002.97844363], [15.06515908, 1335.72576887], [16.36599976, -813.49634683], [7.86420177, -720.45341501], [10.25452653, 239.69852194]], []]], [2, [[], [], [[10.56650824, -4262.72074057], [2.71368379, -1.34753473], [9.33780917, 1569.82864567], [31.60560687, -0.4538755], [12.28030141, 5034.44351544], [13.3677017, -2350.67846378]], []]]]]}
CPU time:         0.64


******** <class 'pyscf.scf.rohf.ROHF'> flags ********
method = ROHF
initial guess = minao
damping factor = 0
level shift factor = 1000.0
DIIS = <class 'pyscf.scf.diis.CDIIS'>
DIIS start cycle = 1
DIIS space = 8
SCF tol = 1e-09
SCF gradient tol = None
max. SCF cycles = 50
direct_scf = True
direct_scf_tol = 1e-13
chkfile to save SCF result = /projects/bamu3429/BENCHMARK/fresh_atoms/MRPT/vqz/atoms/Ti_0/tmp3Btcf8
max_memory 4000 MB (current use 83 MB)
num. doubly occ = 5  num. singly occ = 2
Set gradient conv threshold to 3.16228e-05
init E= -57.512174869796
  HOMO = 499.919090870467  LUMO = 1000.01332005081
cycle= 1 E= -57.5121748697961  delta_E= -7.11e-14  |g|= 7.9e-06  |ddm|= 2.18e-08
  HOMO = -0.0809091298037552  LUMO = 0.0133200508008451
Extra cycle  E= -57.5121748698084  delta_E= -1.23e-11  |g|= 1.92e-06  |ddm|= 2.09e-05
converged SCF energy = -57.5121748698084
**** MO energy ****
                Roothaan           | alpha              | beta
MO #1   energy= -2.92344017513333  | -2.99028774668102  | -2.85659260358565  occ= 2
MO #2   energy= -1.8163293242608   | -1.88258173723333  | -1.75007691128827  occ= 2
MO #3   energy= -1.8163293242608   | -1.88258173723332  | -1.75007691128827  occ= 2
MO #4   energy= -1.81074898876577  | -1.92768184600948  | -1.69381613152207  occ= 2
MO #5   energy= -0.222501160036863 | -0.230547755042057 | -0.21445456503167  occ= 2
MO #6   energy= -0.0809091298037622 | -0.427213574865377 | 0.265395901829235  occ= 1
MO #7   energy= -0.0809091298037552 | -0.427213574865375 | 0.265395901829242  occ= 1
MO #8   energy= 0.0133200508008451 | 0.0127004193356198 | 0.0139396822660686 occ= 0
MO #9   energy= 0.0133200508008462 | 0.0127004193356196 | 0.0139396822660682 occ= 0
MO #10  energy= 0.0144605325786708 | 0.0135994994851892 | 0.0153215656721511 occ= 0
MO #11  energy= 0.0238003022423329 | 0.0234201569870758 | 0.024180447497588  occ= 0
MO #12  energy= 0.0387529026326409 | 0.038690648700395  | 0.0388151565648894 occ= 0
MO #13  energy= 0.0387529026326414 | 0.0386906487003916 | 0.0388151565648859 occ= 0
MO #14  energy= 0.0389116711780164 | 0.0388840433167838 | 0.0389392990392557 occ= 0
MO #15  energy= 0.0392833222185797 | 0.0392066822936557 | 0.0393599146226995 occ= 0
MO #16  energy= 0.039283322218583  | 0.0392066822936573 | 0.0393599146227011 occ= 0
MO #17  energy= 0.0441594032888373 | 0.0427660991997507 | 0.0455527073779238 occ= 0
MO #18  energy= 0.0441594032888377 | 0.0427660991997507 | 0.0455527073779238 occ= 0
MO #19  energy= 0.0465800531689971 | 0.0441972426932469 | 0.0489628636447483 occ= 0
MO #20  energy= 0.0997149513680028 | 0.0947051371290086 | 0.104724765606995  occ= 0
MO #21  energy= 0.0997149513680036 | 0.0947051371290123 | 0.104724765606999  occ= 0
MO #22  energy= 0.105793482316826  | 0.103740361086475  | 0.107846603547176  occ= 0
MO #23  energy= 0.122945519520336  | 0.120849218222313  | 0.125041536226078  occ= 0
MO #24  energy= 0.122945519520338  | 0.120849218222312  | 0.125041536226077  occ= 0
MO #25  energy= 0.173640283734248  | 0.15901022289662   | 0.188270344571878  occ= 0
MO #26  energy= 0.173640283734258  | 0.159010222896629  | 0.188270344571885  occ= 0
MO #27  energy= 0.179095644846735  | 0.175156690196782  | 0.18303459949669   occ= 0
MO #28  energy= 0.179095644846747  | 0.175156690196791  | 0.183034599496698  occ= 0
MO #29  energy= 0.18400777002864   | 0.180885309818025  | 0.187130230239246  occ= 0
MO #30  energy= 0.18408687434778   | 0.177158719402662  | 0.191015029292903  occ= 0
MO #31  energy= 0.195571751829268  | 0.184134182109048  | 0.207009321549487  occ= 0
MO #32  energy= 0.44803030547181   | 0.44735718910079   | 0.448703421842836  occ= 0
MO #33  energy= 0.448030305471816  | 0.447357189100788  | 0.448703421842835  occ= 0
MO #34  energy= 0.44952338966134   | 0.445775231012467  | 0.45327154831022   occ= 0
MO #35  energy= 0.449523389661346  | 0.445775231012467  | 0.45327154831022   occ= 0
MO #36  energy= 0.450476030973676  | 0.447660073717711  | 0.453291988229645  occ= 0
MO #37  energy= 0.450476030973677  | 0.447660073717712  | 0.453291988229646  occ= 0
MO #38  energy= 0.450804005048674  | 0.448818597845     | 0.452789412252351  occ= 0
MO #39  energy= 0.504752187553389  | 0.475614540059575  | 0.533889565008442  occ= 0
MO #40  energy= 0.504752187553422  | 0.47561454005961   | 0.533889565008476  occ= 0
MO #41  energy= 0.554055604583477  | 0.543368468759043  | 0.564742740407909  occ= 0
MO #42  energy= 0.554055604583487  | 0.543368468759053  | 0.564742740407919  occ= 0
MO #43  energy= 0.572019388617542  | 0.563632908304233  | 0.580405868930852  occ= 0
MO #44  energy= 0.587156456675788  | 0.580856804244377  | 0.593456109107177  occ= 0
MO #45  energy= 0.973293695370299  | 0.961307744442219  | 0.985279646298367  occ= 0
MO #46  energy= 0.973293695370301  | 0.961307744442229  | 0.985279646298377  occ= 0
MO #47  energy= 0.987859726541942  | 0.967241338078363  | 1.00847811500552   occ= 0
MO #48  energy= 1.32606594055233   | 1.29889198994642   | 1.35323989115824   occ= 0
MO #49  energy= 1.32606594055234   | 1.29889198994643   | 1.35323989115825   occ= 0
MO #50  energy= 1.32669447176213   | 1.32158892684155   | 1.3318000166827    occ= 0
MO #51  energy= 1.32669447176213   | 1.32158892684155   | 1.3318000166827    occ= 0
MO #52  energy= 1.33187104673075   | 1.31147249638929   | 1.3522695970722    occ= 0
MO #53  energy= 1.33187104673075   | 1.31147249638929   | 1.3522695970722    occ= 0
MO #54  energy= 1.33482041624849   | 1.32042647345514   | 1.34921435904183   occ= 0
MO #55  energy= 1.69518994583317   | 1.69309174118394   | 1.6972881504824    occ= 0
MO #56  energy= 1.69518994583317   | 1.69309174118394   | 1.6972881504824    occ= 0
MO #57  energy= 1.70382586130426   | 1.69517951023677   | 1.71247221237176   occ= 0
MO #58  energy= 1.70382586130426   | 1.69517951023677   | 1.71247221237176   occ= 0
MO #59  energy= 1.70659380909538   | 1.69790772466054   | 1.71527989353021   occ= 0
MO #60  energy= 1.70659380909538   | 1.69790772466055   | 1.71527989353022   occ= 0
MO #61  energy= 1.70675967296618   | 1.70058765729374   | 1.71293168863862   occ= 0
MO #62  energy= 1.70688527002839   | 1.69987338593336   | 1.71389715401558   occ= 0
MO #63  energy= 1.70688527002839   | 1.69987338593336   | 1.71389715401558   occ= 0
MO #64  energy= 2.12524807178836   | 2.10938972363628   | 2.14110641994044   occ= 0
MO #65  energy= 2.29414522761226   | 2.23926430165009   | 2.34902616134451   occ= 0
MO #66  energy= 2.29414522761228   | 2.2392643016501    | 2.34902616134452   occ= 0
MO #67  energy= 2.30339669570441   | 2.29048280094305   | 2.31631059046576   occ= 0
MO #68  energy= 2.30339669570444   | 2.29048280094308   | 2.31631059046579   occ= 0
MO #69  energy= 2.32865504684299   | 2.31781567849982   | 2.33949441518617   occ= 0
MO #70  energy= 3.4930299930942    | 3.48172390069957   | 3.50433608548883   occ= 0
MO #71  energy= 3.49302999309421   | 3.48172390069958   | 3.50433608548884   occ= 0
MO #72  energy= 3.49398135565987   | 3.43898341158696   | 3.54897929973277   occ= 0
MO #73  energy= 3.49398135565987   | 3.43898341158696   | 3.54897929973276   occ= 0
MO #74  energy= 3.50366913121424   | 3.46343742128204   | 3.54390084114643   occ= 0
MO #75  energy= 3.50366913121426   | 3.46343742128207   | 3.54390084114646   occ= 0
MO #76  energy= 3.50995642000717   | 3.47961359975274   | 3.5402992402616    occ= 0
MO #77  energy= 3.6157506758937    | 3.5987045700874    | 3.63279678169999   occ= 0
MO #78  energy= 3.61575067589371   | 3.59870457008741   | 3.6327967817       occ= 0
MO #79  energy= 3.64233197349414   | 3.61648446597069   | 3.6681794810176    occ= 0
MO #80  energy= 4.83056341566131   | 4.82733120029617   | 4.83379563102645   occ= 0
MO #81  energy= 4.83056341566131   | 4.82733120029618   | 4.83379563102646   occ= 0
MO #82  energy= 4.85058381952191   | 4.83868562125449   | 4.86248201778932   occ= 0
MO #83  energy= 4.85058381952191   | 4.8386856212545    | 4.86248201778933   occ= 0
MO #84  energy= 4.85781662567748   | 4.84807716415656   | 4.86755608719841   occ= 0
MO #85  energy= 4.85825511340246   | 4.84451264527602   | 4.87199758152889   occ= 0
MO #86  energy= 4.85825511340246   | 4.84451264527603   | 4.87199758152889   occ= 0
MO #87  energy= 4.85843444916363   | 4.84791979507429   | 4.86894910325298   occ= 0
MO #88  energy= 4.85843444916364   | 4.8479197950743    | 4.86894910325299   occ= 0
MO #89  energy= 4.85943874596087   | 4.84707466682136   | 4.87180282510039   occ= 0
MO #90  energy= 4.85943874596088   | 4.84707466682137   | 4.8718028251004    occ= 0
MO #91  energy= 4.97115963318134   | 4.96470546570868   | 4.97761380065401   occ= 0
MO #92  energy= 4.97115963318134   | 4.96470546570868   | 4.97761380065401   occ= 0
MO #93  energy= 4.99158202714331   | 4.96598151192683   | 5.01718254235979   occ= 0
MO #94  energy= 4.99158202714332   | 4.96598151192684   | 5.01718254235981   occ= 0
MO #95  energy= 4.99804775236923   | 4.9723312658023    | 5.02376423893619   occ= 0
MO #96  energy= 4.99804775236924   | 4.9723312658023    | 5.02376423893619   occ= 0
MO #97  energy= 4.99834303312211   | 4.98021410125898   | 5.01647196498523   occ= 0
MO #98  energy= 4.99866184097231   | 4.97795849404644   | 5.01936518845633   occ= 0
MO #99  energy= 4.99866184097232   | 4.97795849404646   | 5.01936518845635   occ= 0
MO #100 energy= 6.16104503090134   | 6.14954663036337   | 6.17254343143933   occ= 0
MO #101 energy= 6.16104503090136   | 6.14954663036336   | 6.17254343143934   occ= 0
MO #102 energy= 6.17470181388605   | 6.13343514374334   | 6.21596849114681   occ= 0
MO #103 energy= 6.17470181388605   | 6.13343514374335   | 6.21596849114682   occ= 0
MO #104 energy= 6.18665423927041   | 6.17769520943044   | 6.19561326911037   occ= 0
MO #105 energy= 7.52811577945989   | 7.50920960093204   | 7.54702195798773   occ= 0
MO #106 energy= 9.28156094838633   | 9.27050513056376   | 9.29261676620891   occ= 0
MO #107 energy= 9.28156094838639   | 9.27050513056381   | 9.29261676620896   occ= 0
MO #108 energy= 9.29834008665977   | 9.25081342825555   | 9.34586674506402   occ= 0
MO #109 energy= 9.29834008665983   | 9.2508134282556    | 9.34586674506406   occ= 0
MO #110 energy= 9.30698031438223   | 9.27098903183151   | 9.34297159693295   occ= 0
MO #111 energy= 9.30698031438228   | 9.27098903183156   | 9.34297159693301   occ= 0
MO #112 energy= 9.30965384193924   | 9.28320557896433   | 9.33610210491416   occ= 0
MO #113 energy= 10.4705076875929   | 10.4558095537493   | 10.4852058214365   occ= 0
MO #114 energy= 10.4705076875929   | 10.4558095537493   | 10.4852058214365   occ= 0
MO #115 energy= 10.5020399349361   | 10.4781089997095   | 10.5259708701627   occ= 0
MO #116 energy= 13.3104770428624   | 13.3025857385418   | 13.3183683471829   occ= 0
MO #117 energy= 13.3104770428624   | 13.3025857385418   | 13.3183683471829   occ= 0
MO #118 energy= 13.340614372419    | 13.3102834782061   | 13.3709452666319   occ= 0
MO #119 energy= 13.340614372419    | 13.3102834782062   | 13.3709452666319   occ= 0
MO #120 energy= 13.3491054308195   | 13.3276561027415   | 13.3705547588975   occ= 0
MO #121 energy= 13.3495615540356   | 13.3189673579303   | 13.3801557501408   occ= 0
MO #122 energy= 13.3495615540356   | 13.3189673579303   | 13.3801557501408   occ= 0
MO #123 energy= 13.3498462475462   | 13.3253307485688   | 13.3743617467657   occ= 0
MO #124 energy= 13.3498462475462   | 13.3253307485688   | 13.3743617467657   occ= 0
MO #125 energy= 14.1259864394477   | 14.1204629083963   | 14.1315099704991   occ= 0
MO #126 energy= 14.1259864394477   | 14.1204629083963   | 14.1315099704991   occ= 0
MO #127 energy= 14.160018529915    | 14.1400836184731   | 14.1799534413569   occ= 0
MO #128 energy= 14.160018529915    | 14.1400836184731   | 14.1799534413569   occ= 0
MO #129 energy= 14.1713200297358   | 14.1550602828595   | 14.187579776612    occ= 0
MO #130 energy= 14.1724583471388   | 14.1548955018054   | 14.1900211924721   occ= 0
MO #131 energy= 14.1724583471388   | 14.1548955018055   | 14.1900211924721   occ= 0
MO #132 energy= 14.172739455451    | 14.1498097680179   | 14.195669142884    occ= 0
MO #133 energy= 14.172739455451    | 14.1498097680179   | 14.1956691428841   occ= 0
MO #134 energy= 14.1744087737131   | 14.153762935007    | 14.1950546124193   occ= 0
MO #135 energy= 14.1744087737132   | 14.153762935007    | 14.1950546124193   occ= 0
 ** Mulliken pop on meta-lowdin orthogonal AOs  **
 ** Mulliken pop  **
pop of  0Ti 3s        1.99984
pop of  0Ti 4s        1.99781
pop of  0Ti 5s        0.00072
pop of  0Ti 6s        0.00019
pop of  0Ti 7s        0.00000
pop of  0Ti 8s        0.00012
pop of  0Ti 9s        0.00013
pop of  0Ti 3px       1.99978
pop of  0Ti 3py       1.99947
pop of  0Ti 3pz       1.99978
pop of  0Ti 4px       0.00013
pop of  0Ti 4py       0.00005
pop of  0Ti 4pz       0.00013
pop of  0Ti 5px       0.00004
pop of  0Ti 5py       0.00002
pop of  0Ti 5pz       0.00004
pop of  0Ti 6px       0.00001
pop of  0Ti 6py       0.00000
pop of  0Ti 6pz       0.00001
pop of  0Ti 7px       0.00000
pop of  0Ti 7py       0.00000
pop of  0Ti 7pz       0.00000
pop of  0Ti 8px       0.00000
pop of  0Ti 8py       0.00000
pop of  0Ti 8pz       0.00000
pop of  0Ti 9px       0.00000
pop of  0Ti 9py       0.00000
pop of  0Ti 9pz       0.00000
pop of  0Ti 3dxy      0.99102
pop of  0Ti 3dyz      0.99102
pop of  0Ti 3dz^2     0.00018
pop of  0Ti 3dxz      0.00000
pop of  0Ti 3dx2-y2    0.00053
pop of  0Ti 4dxy      0.00718
pop of  0Ti 4dyz      0.00718
pop of  0Ti 4dz^2     0.00010
pop of  0Ti 4dxz      0.00000
pop of  0Ti 4dx2-y2    0.00030
pop of  0Ti 5dxy      0.00083
pop of  0Ti 5dyz      0.00083
pop of  0Ti 5dz^2     0.00001
pop of  0Ti 5dxz      0.00000
pop of  0Ti 5dx2-y2    0.00002
pop of  0Ti 6dxy      0.00009
pop of  0Ti 6dyz      0.00009
pop of  0Ti 6dz^2     0.00000
pop of  0Ti 6dxz      0.00000
pop of  0Ti 6dx2-y2    0.00000
pop of  0Ti 7dxy      0.00083
pop of  0Ti 7dyz      0.00083
pop of  0Ti 7dz^2     0.00001
pop of  0Ti 7dxz      0.00000
pop of  0Ti 7dx2-y2    0.00003
pop of  0Ti 8dxy      0.00004
pop of  0Ti 8dyz      0.00004
pop of  0Ti 8dz^2     0.00000
pop of  0Ti 8dxz      0.00000
pop of  0Ti 8dx2-y2    0.00000
pop of  0Ti 4fy^3     0.00007
pop of  0Ti 4fxyz     0.00000
pop of  0Ti 4fyz^2    0.00004
pop of  0Ti 4fz^3     0.00000
pop of  0Ti 4fxz^2    0.00000
pop of  0Ti 4fzx^2    0.00000
pop of  0Ti 4fx^3     0.00000
pop of  0Ti 5fy^3     0.00015
pop of  0Ti 5fxyz     0.00000
pop of  0Ti 5fyz^2    0.00009
pop of  0Ti 5fz^3     0.00000
pop of  0Ti 5fxz^2    0.00000
pop of  0Ti 5fzx^2    0.00001
pop of  0Ti 5fx^3     0.00001
pop of  0Ti 6fy^3     0.00006
pop of  0Ti 6fxyz     0.00000
pop of  0Ti 6fyz^2    0.00004
pop of  0Ti 6fz^3     0.00001
pop of  0Ti 6fxz^2    0.00000
pop of  0Ti 6fzx^2    0.00001
pop of  0Ti 6fx^3     0.00002
pop of  0Ti 7fy^3     0.00000
pop of  0Ti 7fxyz     0.00000
pop of  0Ti 7fyz^2    0.00000
pop of  0Ti 7fz^3     0.00000
pop of  0Ti 7fxz^2    0.00000
pop of  0Ti 7fzx^2    0.00000
pop of  0Ti 7fx^3     0.00000
pop of  0Ti 5g-4      0.00000
pop of  0Ti 5g-3      0.00000
pop of  0Ti 5g-2      0.00000
pop of  0Ti 5g-1      0.00000
pop of  0Ti 5g 0      0.00000
pop of  0Ti 5g 1      0.00000
pop of  0Ti 5g 2      0.00000
pop of  0Ti 5g 3      0.00000
pop of  0Ti 5g 4      0.00000
pop of  0Ti 6g-4      0.00001
pop of  0Ti 6g-3      0.00000
pop of  0Ti 6g-2      0.00000
pop of  0Ti 6g-1      0.00000
pop of  0Ti 6g 0      0.00000
pop of  0Ti 6g 1      0.00000
pop of  0Ti 6g 2      0.00000
pop of  0Ti 6g 3      0.00000
pop of  0Ti 6g 4      0.00000
pop of  0Ti 7g-4      0.00001
pop of  0Ti 7g-3      0.00000
pop of  0Ti 7g-2      0.00000
pop of  0Ti 7g-1      0.00000
pop of  0Ti 7g 0      0.00000
pop of  0Ti 7g 1      0.00000
pop of  0Ti 7g 2      0.00000
pop of  0Ti 7g 3      0.00000
pop of  0Ti 7g 4      0.00000
pop of  0Ti 6h-5      0.00000
pop of  0Ti 6h-4      0.00000
pop of  0Ti 6h-3      0.00000
pop of  0Ti 6h-2      0.00000
pop of  0Ti 6h-1      0.00000
pop of  0Ti 6h 0      0.00000
pop of  0Ti 6h 1      0.00000
pop of  0Ti 6h 2      0.00000
pop of  0Ti 6h 3      0.00000
pop of  0Ti 6h 4      0.00000
pop of  0Ti 6h 5      0.00000
pop of  0Ti 7h-5      0.00000
pop of  0Ti 7h-4      0.00000
pop of  0Ti 7h-3      0.00000
pop of  0Ti 7h-2      0.00000
pop of  0Ti 7h-1      0.00000
pop of  0Ti 7h 0      0.00000
pop of  0Ti 7h 1      0.00000
pop of  0Ti 7h 2      0.00000
pop of  0Ti 7h 3      0.00000
pop of  0Ti 7h 4      0.00000
pop of  0Ti 7h 5      0.00000
 ** Mulliken atomic charges  **
charge of  0Ti =     -0.00000

******** <class 'pyscf.mcscf.mc1step.CASSCF'> flags ********
CAS (3e+1e, 6o), ncore = 4, nvir = 125
max_cycle_macro = 50
max_cycle_micro = 4
conv_tol = 1e-07
conv_tol_grad = None
orbital rotation max_stepsize = 0.02
augmented hessian ah_max_cycle = 30
augmented hessian ah_conv_tol = 1e-12
augmented hessian ah_linear dependence = 1e-14
augmented hessian ah_level shift = 0
augmented hessian ah_start_tol = 2.5
augmented hessian ah_start_cycle = 3
augmented hessian ah_grad_trust_region = 3
kf_trust_region = 3
kf_interval = 4
ci_response_space = 4
ci_grad_trust_region = 3
with_dep4 0
natorb = False
canonicalization = True
chkfile = ./scratch/145498/tmp8SD6Ar
max_memory 4000 MB (current use 433 MB)
internal_rotation = False

******** SHCI flags ********
executable             = /home/bamu3429/softwares/dice/Dice
mpiprefix              = mpirun -np 28
scratchDirectory       = ./scratch/145498
integralFile           = ./FCIDUMP
configFile             = ./input.dat
outputFile             = ./output.dat
maxIter                = 6
sweep_iter             = []
sweep_epsilon          = []
nPTiter                = 0
Stochastic             = True
fullrestart            = False
restart                = False
num_thrds              = 12
memory                 = None

CASCI E = -57.5132040849095  S^2 = 2.0000000
Set conv_tol_grad to 0.000316228
macro iter 1 (21 JK  4 micro), CASSCF E = -57.5235697544783  dE = -0.01036567  S^2 = 2.0000000
               |grad[o]|=0.00288  |grad[c]|= None  |ddm|=0.0545
macro iter 2 (21 JK  4 micro), CASSCF E = -57.5376313008833  dE = -0.014061546  S^2 = 2.0000000
               |grad[o]|=0.0133  |grad[c]|= None  |ddm|=0.0752
macro iter 3 (21 JK  4 micro), CASSCF E = -57.5434334726324  dE = -0.0058021717  S^2 = 2.0000000
               |grad[o]|=0.0116  |grad[c]|= None  |ddm|=0.0218
macro iter 4 (7 JK  3 micro), CASSCF E = -57.543446046581  dE = -1.2573949e-05  S^2 = 2.0000000
               |grad[o]|=0.000898  |grad[c]|= None  |ddm|=0.000784
macro iter 5 (3 JK  1 micro), CASSCF E = -57.5434460493183  dE = -2.7372522e-09  S^2 = 2.0000000
               |grad[o]|=3.15e-05  |grad[c]|= None  |ddm|=    0
1-step CASSCF converged in 5 macro (73 JK 16 micro) steps
CASSCF canonicalization
CASSCF energy = -57.5434460493183


--------------------------------------------------
                 ICMPSPT CALCULATION              
--------------------------------------------------

Perturbation type: MRLCC
With fully internally contracted scheme
With third order correction

Preparing necessary RDMs
......production of RDMs took       0.51 sec
Reading binary 4RDM from DICE
......reading the RDM took          0.96 sec

(GOOD) Trace 4RDM:     24.0 =    4*    3*    2*    1
(GOOD) Trace 3RDM:     24.0 =    4*    3*    2
(GOOD) Trace 2RDM:     12.0 =    4*    3
(GOOD) Trace 1RDM:      4.0 =    4

Producing the integrals
......production of INT took    1548.46 sec

Energy_core =  -54.1874793405
Energy      =  -57.5434460493

WARNING: Have to use natural orbitals from CAASCF
         offdiagonal elements: 0.449333983654

Basic ingredients written to int/
......savings of INGREDIENTS took     300.23 sec

Second-order:
perturber CCVV --        -0.215047063
perturber CCAV --        -0.057374040
perturber ACVV --        -0.113837276
perturber CCAA --        -0.002685470
perturber AAVV --        -0.032335503
perturber CAAV --        -0.042350187
perturber AAAV --        -0.008582320
perturber AAAC --        -0.002921710
Total:                   -0.475133568

Third-order:              0.001240063

Total PT       --        -0.473893505

