 &FCI NORB=3 ,NELEC=3 ,MS2=3,
  ORBSYM=1,1,1,
  ISYM=1,
 &END
  9.149202015094e-01    1  1  1  1
 -2.829766398332e-11    2  1  1  1
  4.705412892441e-02    2  1  2  1
  8.208119421409e-01    2  2  1  1
 -2.829772451265e-11    2  2  2  1
  9.149201984702e-01    2  2  2  2
  4.777726260401e-11    3  1  1  1
 -9.518959846915e-12    3  1  2  1
  4.110009284586e-11    3  1  2  2
  4.705412876924e-02    3  1  3  1
 -1.317050218371e-10    3  2  1  1
  3.338599750895e-12    3  2  2  1
 -1.507420292763e-10    3  2  2  2
 -1.777402667379e-12    3  2  3  1
  4.705412867030e-02    3  2  3  2
  8.208119399854e-01    3  3  1  1
 -2.474289197608e-11    3  3  2  1
  8.208119386637e-01    3  3  2  2
  4.777731706914e-11    3  3  3  1
 -1.507436944918e-10    3  3  3  2
  9.149201935384e-01    3  3  3  3
 -2.879788193972e+00    1  1  0  0
  4.572754124205e-11    2  1  0  0
 -2.879788191533e+00    2  2  0  0
 -7.524580387696e-11    3  1  0  0
  2.437013937342e-10    3  2  0  0
 -2.879788187543e+00    3  3  0  0
     -8.891473229294   0  0  0  0
