 &FCI NORB=3 ,NELEC=4 ,MS2=2,
  ORBSYM=1,1,1,
  ISYM=1,
 &END
  7.853003998244e-01    1  1  1  1
 -4.229851678900e-12    2  1  1  1
  3.988698104875e-02    2  1  2  1
  7.254080160386e-01    2  2  1  1
 -8.677505569215e-12    2  2  2  1
  8.288577953046e-01    2  2  2  2
  1.435038205202e-12    3  1  1  1
  2.290859334421e-12    3  1  2  2
  3.988698111525e-02    3  1  3  1
  2.034282899656e-12    3  2  1  1
 -1.461732835438e-12    3  2  2  1
  2.449341107624e-12    3  2  2  2
 -3.430741144203e-12    3  2  3  1
  4.201454632442e-02    3  2  3  2
  7.254080170899e-01    3  3  1  1
 -1.805944864288e-12    3  3  2  1
  7.448287039235e-01    3  3  2  2
  2.465879645064e-12    3  3  3  2
  8.288577978401e-01    3  3  3  3
 -2.763659853123e+00    1  1  0  0
  2.088549763439e-11    2  1  0  0
 -2.817273605203e+00    2  2  0  0
  1.573008263409e-12    3  1  0  0
 -5.933488244926e-12    3  2  0  0
 -2.817273608268e+00    3  3  0  0
     -8.799893032447   0  0  0  0
