#INFO: **** input file is /projects/bamu3429/BENCHMARK/fresh_atoms/MRPT/vtz/atoms/O_0/mrpt.py ****
import json
from pyscf import gto,scf,mcscf, fci, lo, ci, cc
from pyscf.scf import ROHF, UHF,ROKS
import numpy as np
import pandas as pd

# THIS IS WERE IT STARTS ====================================

df=json.load(open("../../../trail.json"))

spins={'Sc':1, 'Ti':2, 'V':3, 'Cr':6, 'Mn':5, 'Fe':4, 'Cu':1}

nd={'Sc':(1,0), 'Ti':(2,0), 'V':(3,0), 'Cr':(5,0), 'Mn':(5,0), 'Fe':(5,1), 'Cu':(5,5)}

cas={'Sc':3, 'Ti':4, 'V':5, 'Cr':6, 'Mn':7, 'Fe':8, 'Cu':11}

datacsv={}
for nm in ['atom','charge','method','basis','pseudopotential','hf',
           'totalenergy','totalenergy-stocherr','totalenergy-syserr']:
  datacsv[nm]=[]

basis='vtz'
el='O'
charge=0

mol=gto.Mole()
mol.ecp={}
mol.basis={}
mol.ecp[el]=gto.basis.parse_ecp(df[el]['ecp'])
mol.basis[el]=gto.basis.parse(df[el][basis])
mol.charge=charge
mol.spin=2
mol.build(atom="%s 0. 0. 0."%el,verbose=4)

m=ROHF(mol)
m.level_shift=1000.0
#dm=m.from_chk("../../../../HF/atoms/"+el+basis+str(charge)+".chk")
hf=m.kernel()#dm)
m.analyze()

from pyscf.shciscf import shci
mc = shci.SHCISCF(m, 3, 4)
#mc.fcisolver.conv_tol = 1e-14
mc.fcisolver.mpiprefix="srun -n20"
mc.fcisolver.num_thrds=12
mc.verbose = 4
cas=mc.kernel()[0]
 
from pyscf.icmpspt import icmpspt
pt=icmpspt.icmpspt(mc,rdmM=500, PTM=1000,\
                          pttype="MRLCC",\
                          third_order=True,\
                          fully_ic=True,\
                          do_dm4=True)

datacsv['atom'].append(el)
datacsv['charge'].append(charge)
datacsv['method'].append('MRPT')
datacsv['basis'].append(basis)
datacsv['pseudopotential'].append('trail')
datacsv['hf'].append(hf)
datacsv['totalenergy'].append(cas+pt)
datacsv['totalenergy-stocherr'].append(0.0)
datacsv['totalenergy-syserr'].append(0.0)
pd.DataFrame(datacsv).to_csv(el+".csv",index=False)

#INFO: ******************** input file end ********************


System: ('Linux', 'bnode0302.rc.int.colorado.edu', '3.10.0-514.41.1.el7.x86_64', '#1 SMP Wed Jan 17 10:26:16 EST 2018', 'x86_64', 'x86_64')  Threads 28
Python 2.7.11 (default, Mar 22 2016, 01:42:54) 
[GCC Intel(R) C++ gcc 4.8 mode]
numpy 1.11.1  scipy 0.17.1
Date: Wed Apr 18 16:36:29 2018
PySCF version 1.4.6
PySCF path  /projects/bamu3429/softwares/pyscf_uptodate/pyscf
GIT ORIG_HEAD f3591ef22170896a4cdc2aadaa6f5da388ffcadb
GIT HEAD      ref: refs/heads/master
GIT master branch  1847583fb1d2472321833d3c71c8b7008e5fabf5

[INPUT] VERBOSE 4
[INPUT] num atoms = 1
[INPUT] num electrons = 6
[INPUT] charge = 0
[INPUT] spin (= nelec alpha-beta = 2S) = 2
[INPUT] symmetry False subgroup None
[INPUT]  1 O      0.000000000000   0.000000000000   0.000000000000 AA    0.000000000000   0.000000000000   0.000000000000 Bohr
[INPUT] ---------------- BASIS SET ---------------- 
[INPUT] l, kappa, [nprim/nctr], expnt,             c_1 c_2 ...
[INPUT] O
[INPUT] 0    0    [10   /1   ]  57.663349         -0.002794
                                35.726816         0.023976
                                22.453757         -0.115974
                                14.732301         0.288033
                                9.739917          -0.274786
                                5.042008          -0.083789
                                2.157818          0.063778
                                1.002916          0.410182
                                0.421839          0.504044
                                0.173041          0.172152
[INPUT] 0    0    [1    /1   ]  1.849096             1
[INPUT] 0    0    [1    /1   ]  0.255434             1
[INPUT] 0    0    [1    /1   ]  0.141483             1
[INPUT] 1    0    [10   /1   ]  52.47406          -0.000522
                                32.138432         0.004857
                                19.458579         -0.027749
                                11.839344         0.074258
                                7.91003           0.014369
                                3.670858          0.153479
                                1.53966           0.283685
                                0.647119          0.358201
                                0.267853          0.29559
                                0.107198          0.104889
[INPUT] 1    0    [1    /1   ]  0.622175             1
[INPUT] 1    0    [1    /1   ]  0.193391             1
[INPUT] 1    0    [1    /1   ]  0.052779             1
[INPUT] 2    0    [1    /1   ]  2.324251             1
[INPUT] 2    0    [1    /1   ]  0.656935             1
[INPUT] 2    0    [1    /1   ]  0.2072               1
[INPUT] 3    0    [1    /1   ]  1.423472             1
[INPUT] 3    0    [1    /1   ]  0.48761              1
nuclear repulsion = 0
number of shells = 13
number of NR pGTOs = 81
number of NR cGTOs = 45
basis = {'O': [[0, [57.663349, -0.002794], [35.726816, 0.023976], [22.453757, -0.115974], [14.732301, 0.288033], [9.739917, -0.274786], [5.042008, -0.083789], [2.157818, 0.063778], [1.002916, 0.410182], [0.421839, 0.504044], [0.173041, 0.172152]], [0, [1.849096, 1.0]], [0, [0.255434, 1.0]], [0, [0.141483, 1.0]], [1, [52.47406, -0.000522], [32.138432, 0.004857], [19.458579, -0.027749], [11.839344, 0.074258], [7.91003, 0.014369], [3.670858, 0.153479], [1.53966, 0.283685], [0.647119, 0.358201], [0.267853, 0.29559], [0.107198, 0.104889]], [1, [0.622175, 1.0]], [1, [0.193391, 1.0]], [1, [0.052779, 1.0]], [2, [2.324251, 1.0]], [2, [0.656935, 1.0]], [2, [0.2072, 1.0]], [3, [1.423472, 1.0]], [3, [0.48761, 1.0]]]}
ecp = {'O': [2, [[-1, [[], [[10.27717748, 6.0]], [[15.99566749, 1232.50197768], [10.46901775, -696.47008301], [14.6384801, -2654.22657081], [12.57591181, 2101.67732548]], [[7.77739102, 61.66306486]]]], [0, [[], [], [[12.39426073, -656683.37638839], [12.38126171, 657858.57667068], [8.57671033, 511.50098405], [9.89256508, -2579.54665641], [28.05641604, -57.68129584], [17.24753607, 970.30940152]], []]], [1, [[], [], [[14.78918914, -363027.24258186], [14.82014018, 361852.52314043], [22.89622221, -1300.20069256], [8.51331893, -181.96869573], [11.48609758, 2194.87589959], [27.22017524, 451.19906206]], []]]]]}
CPU time:         3.60


******** <class 'pyscf.scf.rohf.ROHF'> flags ********
method = ROHF
initial guess = minao
damping factor = 0
level shift factor = 1000.0
DIIS = <class 'pyscf.scf.diis.CDIIS'>
DIIS start cycle = 1
DIIS space = 8
SCF tol = 1e-09
SCF gradient tol = None
max. SCF cycles = 50
direct_scf = True
direct_scf_tol = 1e-13
chkfile to save SCF result = /rc_scratch/bamu3429/tmpSKYv8R
max_memory 4000 MB (current use 86 MB)
num. doubly occ = 2  num. singly occ = 2
Set gradient conv threshold to 3.16228e-05
init E= -15.1341721311697
  HOMO = 332.929598794417  LUMO = 1000.14131676479
cycle= 1 E= -15.6451684262232  delta_E= -0.511  |g|= 0.12  |ddm|= 1.15
  HOMO = 499.694635182398  LUMO = 1000.1410112503
cycle= 2 E= -15.6452103818546  delta_E= -4.2e-05  |g|= 0.12  |ddm|= 0.000642
  HOMO = 499.71030186386  LUMO = 1000.14093204733
cycle= 3 E= -15.6452506007642  delta_E= -4.02e-05  |g|= 0.119  |ddm|= 0.0006
  HOMO = 499.714972844288  LUMO = 1000.14097409156
cycle= 4 E= -15.6452893029795  delta_E= -3.87e-05  |g|= 0.119  |ddm|= 0.000568
  HOMO = 499.712927820285  LUMO = 1000.14093602628
cycle= 5 E= -15.6453277410205  delta_E= -3.84e-05  |g|= 0.118  |ddm|= 0.000562
  HOMO = 499.71169951895  LUMO = 1000.14095943939
cycle= 6 E= -15.6453658179194  delta_E= -3.81e-05  |g|= 0.117  |ddm|= 0.000556
  HOMO = 499.721201114215  LUMO = 1000.14074078786
cycle= 7 E= -15.6454022911547  delta_E= -3.65e-05  |g|= 0.117  |ddm|= 0.00053
  HOMO = 499.723188589528  LUMO = 1000.14073625921
cycle= 8 E= -15.6454381229911  delta_E= -3.58e-05  |g|= 0.116  |ddm|= 0.00053
  HOMO = 499.729483929586  LUMO = 1000.14090902932
cycle= 9 E= -15.6454732952719  delta_E= -3.52e-05  |g|= 0.116  |ddm|= 0.000554
  HOMO = 499.72893718212  LUMO = 1000.13984842428
cycle= 10 E= -15.6455083861867  delta_E= -3.51e-05  |g|= 0.115  |ddm|= 0.000579
  HOMO = 499.716959206128  LUMO = 1000.14044078418
cycle= 11 E= -15.6455437689243  delta_E= -3.54e-05  |g|= 0.114  |ddm|= 0.000539
  HOMO = 499.71619236639  LUMO = 1000.13969612966
cycle= 12 E= -15.6455792510182  delta_E= -3.55e-05  |g|= 0.114  |ddm|= 0.000567
  HOMO = 499.717621422594  LUMO = 1000.13986789345
cycle= 13 E= -15.6456145888614  delta_E= -3.53e-05  |g|= 0.113  |ddm|= 0.000582
  HOMO = 499.718683272603  LUMO = 1000.1401212964
cycle= 14 E= -15.6456490686843  delta_E= -3.45e-05  |g|= 0.113  |ddm|= 0.000557
  HOMO = 499.717031376303  LUMO = 1000.13999504726
cycle= 15 E= -15.6456833586244  delta_E= -3.43e-05  |g|= 0.112  |ddm|= 0.000552
  HOMO = 499.716568525248  LUMO = 1000.14105558219
cycle= 16 E= -15.6457173398594  delta_E= -3.4e-05  |g|= 0.112  |ddm|= 0.000537
  HOMO = 499.715571395645  LUMO = 1000.14042843571
cycle= 17 E= -15.6457510710298  delta_E= -3.37e-05  |g|= 0.111  |ddm|= 0.00054
  HOMO = 499.72426870851  LUMO = 1000.1379623556
cycle= 18 E= -15.645784231421  delta_E= -3.32e-05  |g|= 0.111  |ddm|= 0.000616
  HOMO = 499.710843695296  LUMO = 1000.13978530468
cycle= 19 E= -15.6458177008023  delta_E= -3.35e-05  |g|= 0.11  |ddm|= 0.000532
  HOMO = 499.716891798383  LUMO = 1000.1411732066
cycle= 20 E= -15.6458489900623  delta_E= -3.13e-05  |g|= 0.109  |ddm|= 0.00045
  HOMO = 499.720193596677  LUMO = 1000.13995008337
cycle= 21 E= -15.6458810015047  delta_E= -3.2e-05  |g|= 0.109  |ddm|= 0.000539
  HOMO = 499.718922811459  LUMO = 1000.13980530481
cycle= 22 E= -15.645913006065  delta_E= -3.2e-05  |g|= 0.108  |ddm|= 0.000546
  HOMO = 499.715395863607  LUMO = 1000.13999085403
cycle= 23 E= -15.6459450617249  delta_E= -3.21e-05  |g|= 0.108  |ddm|= 0.000542
  HOMO = 499.718903771174  LUMO = 1000.14050752647
cycle= 24 E= -15.6459761104915  delta_E= -3.1e-05  |g|= 0.107  |ddm|= 0.000518
  HOMO = 499.716697586812  LUMO = 1000.14019663512
cycle= 25 E= -15.6460072121528  delta_E= -3.11e-05  |g|= 0.107  |ddm|= 0.000522
  HOMO = 499.713703821674  LUMO = 1000.14037994717
cycle= 26 E= -15.6460383741236  delta_E= -3.12e-05  |g|= 0.106  |ddm|= 0.000518
  HOMO = 499.714843046596  LUMO = 1000.1401333274
cycle= 27 E= -15.6460692511859  delta_E= -3.09e-05  |g|= 0.106  |ddm|= 0.000525
  HOMO = 499.717515519365  LUMO = 1000.14029194465
cycle= 28 E= -15.6460999381221  delta_E= -3.07e-05  |g|= 0.105  |ddm|= 0.000551
  HOMO = 499.71520459435  LUMO = 1000.1403125365
cycle= 29 E= -15.6461293730971  delta_E= -2.94e-05  |g|= 0.105  |ddm|= 0.000468
  HOMO = 499.715714494196  LUMO = 1000.14039459166
cycle= 30 E= -15.6461589652833  delta_E= -2.96e-05  |g|= 0.104  |ddm|= 0.000501
  HOMO = 499.717999028359  LUMO = 1000.14099901001
cycle= 31 E= -15.6461879556133  delta_E= -2.9e-05  |g|= 0.104  |ddm|= 0.000487
  HOMO = 499.716973137568  LUMO = 1000.1405758336
cycle= 32 E= -15.6462165805475  delta_E= -2.86e-05  |g|= 0.103  |ddm|= 0.000474
  HOMO = 499.71435198969  LUMO = 1000.14154449214
cycle= 33 E= -15.6462455380486  delta_E= -2.9e-05  |g|= 0.103  |ddm|= 0.000486
  HOMO = 499.734520944901  LUMO = 1000.13925694456
cycle= 34 E= -15.646271609976  delta_E= -2.61e-05  |g|= 0.103  |ddm|= 0.000474
  HOMO = 499.727377122472  LUMO = 1000.13872893935
cycle= 35 E= -15.6462985816408  delta_E= -2.7e-05  |g|= 0.102  |ddm|= 0.000504
  HOMO = 499.725044465045  LUMO = 1000.13880688792
cycle= 36 E= -15.6463249937982  delta_E= -2.64e-05  |g|= 0.102  |ddm|= 0.000462
  HOMO = 499.722234803106  LUMO = 1000.13901931363
cycle= 37 E= -15.6463510585182  delta_E= -2.61e-05  |g|= 0.101  |ddm|= 0.000433
  HOMO = 499.725101677182  LUMO = 1000.13903694412
cycle= 38 E= -15.6463771656204  delta_E= -2.61e-05  |g|= 0.101  |ddm|= 0.000467
  HOMO = 499.723004254271  LUMO = 1000.13946009655
cycle= 39 E= -15.6464041260124  delta_E= -2.7e-05  |g|=  0.1  |ddm|= 0.000519
  HOMO = 499.720761689177  LUMO = 1000.13977411015
cycle= 40 E= -15.6464307570929  delta_E= -2.66e-05  |g|=  0.1  |ddm|= 0.000487
  HOMO = 499.718737604132  LUMO = 1000.14030597985
cycle= 41 E= -15.6464575752258  delta_E= -2.68e-05  |g|= 0.0996  |ddm|= 0.00049
  HOMO = 499.719063725615  LUMO = 1000.14043562569
cycle= 42 E= -15.6464841784794  delta_E= -2.66e-05  |g|= 0.0992  |ddm|= 0.000491
  HOMO = 499.722991972953  LUMO = 1000.13985373452
cycle= 43 E= -15.6465105003609  delta_E= -2.63e-05  |g|= 0.0988  |ddm|= 0.000523
  HOMO = 499.723747997971  LUMO = 1000.13943599001
cycle= 44 E= -15.6465362831803  delta_E= -2.58e-05  |g|= 0.0984  |ddm|= 0.000507
  HOMO = 499.723509059404  LUMO = 1000.13946534141
cycle= 45 E= -15.6465619337698  delta_E= -2.57e-05  |g|= 0.098  |ddm|= 0.000509
  HOMO = 499.720601420385  LUMO = 1000.13949968791
cycle= 46 E= -15.6465871276834  delta_E= -2.52e-05  |g|= 0.0976  |ddm|= 0.000464
  HOMO = 499.721573121069  LUMO = 1000.13901733944
cycle= 47 E= -15.6466123080766  delta_E= -2.52e-05  |g|= 0.0972  |ddm|= 0.000489
  HOMO = 499.724417486933  LUMO = 1000.13938613725
cycle= 48 E= -15.6466368927517  delta_E= -2.46e-05  |g|= 0.0968  |ddm|= 0.000475
  HOMO = 499.71883723377  LUMO = 1000.14101870997
cycle= 49 E= -15.6466619731299  delta_E= -2.51e-05  |g|= 0.0964  |ddm|= 0.000463
  HOMO = 499.72240165435  LUMO = 1000.1406052692
cycle= 50 E= -15.6466860410535  delta_E= -2.41e-05  |g|= 0.0961  |ddm|= 0.000434
  HOMO = -0.304185368914128  LUMO = 0.141992082298442
Extra cycle  E= -15.650964605193  delta_E= -0.00428  |g|= 0.0565  |ddm|= 0.19
SCF not converged.
SCF energy = -15.650964605193 after 50 cycles
**** MO energy ****
                Roothaan           | alpha              | beta
MO #1   energy= -1.28085056286192  | -1.44337140626081  | -1.11832972015922  occ= 2
MO #2   energy= -0.597506612260902 | -0.636970504962772 | -0.558042719559034 occ= 2
MO #3   energy= -0.30418549084288  | -0.717745794312549 | 0.133032683595764  occ= 1
MO #4   energy= -0.304185368914128 | -0.717753261239912 | 0.133036241424419  occ= 1
MO #5   energy= 0.141992082298442  | 0.133771329313412  | 0.142144294458872  occ= 0
MO #6   energy= 0.141992439233463  | 0.133771788937807  | 0.142144874481056  occ= 0
MO #7   energy= 0.142028224767697  | 0.140761229267339  | 0.143295220058815  occ= 0
MO #8   energy= 0.290621354818911  | 0.276452276954234  | 0.304790432655933  occ= 0
MO #9   energy= 0.62007051242011   | 0.600005321286106  | 0.640135703555223  occ= 0
MO #10  energy= 0.620070512430065  | 0.600005321301307  | 0.64013570355489   occ= 0
MO #11  energy= 0.628109758770237  | 0.616676902300199  | 0.639542615240277  occ= 0
MO #12  energy= 0.628109967418124  | 0.616676871808042  | 0.639543063028203  occ= 0
MO #13  energy= 0.630979069376669  | 0.622313117861201  | 0.639645020891659  occ= 0
MO #14  energy= 0.79601958437005   | 0.785866523879647  | 0.806172644860454  occ= 0
MO #15  energy= 0.801303261802067  | 0.750474627193827  | 0.837690621668324  occ= 0
MO #16  energy= 0.801306418349047  | 0.750477687202874  | 0.837692613032859  occ= 0
MO #17  energy= 1.84424365307519   | 1.80174722292464   | 1.88674008324737   occ= 0
MO #18  energy= 1.96322595238623   | 1.94279920936762   | 1.98365269540496   occ= 0
MO #19  energy= 1.9632259523867    | 1.94279920936823   | 1.98365269540531   occ= 0
MO #20  energy= 1.97960786292113   | 1.96511895322042   | 1.99409677262183   occ= 0
MO #21  energy= 1.97960786292845   | 1.96511895321755   | 1.99409677263936   occ= 0
MO #22  energy= 1.98957307544765   | 1.97856733089144   | 2.00036298386595   occ= 0
MO #23  energy= 1.98957350368228   | 1.97856750053316   | 2.00036367656456   occ= 0
MO #24  energy= 1.99280470619233   | 1.98301706223974   | 2.00259235014494   occ= 0
MO #25  energy= 2.09363399101797   | 2.01960406300903   | 2.16766391921794   occ= 0
MO #26  energy= 2.09363399118011   | 2.01960406310453   | 2.16766391926365   occ= 0
MO #27  energy= 2.10802424623895   | 2.06581859964253   | 2.15022989283536   occ= 0
MO #28  energy= 2.10802427887392   | 2.06581916831502   | 2.15022938943283   occ= 0
MO #29  energy= 2.11320361134535   | 2.08072360257269   | 2.14568362023186   occ= 0
MO #30  energy= 3.55667362308129   | 3.4783929184647    | 3.63421874772811   occ= 0
MO #31  energy= 3.55667815179821   | 3.47839912345425   | 3.6342183704565    occ= 0
MO #32  energy= 3.56722019643481   | 3.54866168230778   | 3.58577871056182   occ= 0
MO #33  energy= 6.28433723851731   | 6.23457467879955   | 6.33409979823504   occ= 0
MO #34  energy= 6.28433723851754   | 6.23457467879944   | 6.33409979823562   occ= 0
MO #35  energy= 6.31610039496573   | 6.28076261964718   | 6.35143817028429   occ= 0
MO #36  energy= 6.31610039497374   | 6.28076261969032   | 6.35143817025717   occ= 0
MO #37  energy= 6.33531144749947   | 6.30853060390158   | 6.36189980441405   occ= 0
MO #38  energy= 6.33531148278815   | 6.30853058780863   | 6.36189989856788   occ= 0
MO #39  energy= 6.34166407896476   | 6.31771634479251   | 6.36561181313701   occ= 0
MO #40  energy= 6.83709510987291   | 6.7534664607547    | 6.9207237594388    occ= 0
MO #41  energy= 6.83709511027288   | 6.7534664611049    | 6.92072375945683   occ= 0
MO #42  energy= 6.86748278765794   | 6.81908500501785   | 6.91588057029804   occ= 0
MO #43  energy= 6.86748296249066   | 6.81908652922594   | 6.91587939575537   occ= 0
MO #44  energy= 6.87767366359453   | 6.84084848600887   | 6.91449884137205   occ= 0
MO #45  energy= 11.8514125606666   | 11.8089220758705   | 11.8939030454473   occ= 0
 ** Mulliken pop on meta-lowdin orthogonal AOs  **
 ** Mulliken pop  **
pop of  0O 2s        1.99993
pop of  0O 3s        0.00002
pop of  0O 4s        0.00002
pop of  0O 5s        0.00002
pop of  0O 2px       1.00117
pop of  0O 2py       1.85981
pop of  0O 2pz       1.13022
pop of  0O 3px       0.00001
pop of  0O 3py       0.00001
pop of  0O 3pz       0.00001
pop of  0O 4px       0.00222
pop of  0O 4py       0.00050
pop of  0O 4pz       0.00196
pop of  0O 5px       0.00189
pop of  0O 5py       0.00033
pop of  0O 5pz       0.00166
pop of  0O 3dxy      0.00000
pop of  0O 3dyz      0.00000
pop of  0O 3dz^2     0.00000
pop of  0O 3dxz      0.00000
pop of  0O 3dx2-y2    0.00000
pop of  0O 4dxy      0.00000
pop of  0O 4dyz      0.00000
pop of  0O 4dz^2     0.00000
pop of  0O 4dxz      0.00000
pop of  0O 4dx2-y2    0.00000
pop of  0O 5dxy      0.00000
pop of  0O 5dyz      0.00001
pop of  0O 5dz^2     0.00000
pop of  0O 5dxz      0.00000
pop of  0O 5dx2-y2    0.00001
pop of  0O 4fy^3     0.00002
pop of  0O 4fxyz     0.00001
pop of  0O 4fyz^2    0.00003
pop of  0O 4fz^3     0.00001
pop of  0O 4fxz^2    0.00000
pop of  0O 4fzx^2    0.00002
pop of  0O 4fx^3     0.00003
pop of  0O 5fy^3     0.00001
pop of  0O 5fxyz     0.00001
pop of  0O 5fyz^2    0.00003
pop of  0O 5fz^3     0.00001
pop of  0O 5fxz^2    0.00000
pop of  0O 5fzx^2    0.00002
pop of  0O 5fx^3     0.00003
 ** Mulliken atomic charges  **
charge of  0O =     -0.00000

******** <class 'pyscf.mcscf.mc1step.CASSCF'> flags ********
CAS (3e+1e, 3o), ncore = 1, nvir = 41
max_cycle_macro = 50
max_cycle_micro = 4
conv_tol = 1e-07
conv_tol_grad = None
orbital rotation max_stepsize = 0.02
augmented hessian ah_max_cycle = 30
augmented hessian ah_conv_tol = 1e-12
augmented hessian ah_linear dependence = 1e-14
augmented hessian ah_level shift = 0
augmented hessian ah_start_tol = 2.5
augmented hessian ah_start_cycle = 3
augmented hessian ah_grad_trust_region = 3
kf_trust_region = 3
kf_interval = 4
ci_response_space = 4
ci_grad_trust_region = 3
with_dep4 0
natorb = False
canonicalization = True
sorting_mo_energy = False
chkfile = ./scratch/157475/tmpYh8zrf
max_memory 4000 MB (current use 151 MB)
internal_rotation = False

******** SHCI flags ********
executable             = /home/bamu3429/softwares/dice/Dice
mpiprefix              = srun -n20
scratchDirectory       = ./scratch/157475
integralFile           = ./FCIDUMP
configFile             = ./input.dat
outputFile             = ./output.dat
maxIter                = 6
sweep_iter             = []
sweep_epsilon          = []
nPTiter                = 0
Stochastic             = True
fullrestart            = False
restart                = False
num_thrds              = 12
memory                 = None

CASCI E = -15.6509646051933  S^2 = 2.0000000
Set conv_tol_grad to 0.000316228
macro iter 1 (6 JK  2 micro), CASSCF E = -15.6517872742913  dE = -0.0008226691  S^2 = 2.0000000
               |grad[o]|=0.0565  |grad[c]|= None  |ddm|=    0
macro iter 2 (3 JK  1 micro), CASSCF E = -15.6517872906475  dE = -1.6356269e-08  S^2 = 2.0000000
               |grad[o]|=0.000238  |grad[c]|= None  |ddm|=    0
1-step CASSCF converged in 2 macro (9 JK 3 micro) steps
CASSCF canonicalization
CASSCF energy = -15.6517872906475


--------------------------------------------------
                 ICMPSPT CALCULATION              
--------------------------------------------------

Perturbation type: MRLCC
With fully internally contracted scheme
With third order correction

Preparing necessary RDMs
......production of RDMs took       1.86 sec
Reading binary 4RDM from DICE
......reading the RDM took          0.01 sec

(GOOD) Trace 4RDM:     24.0 =    4*    3*    2*    1
(GOOD) Trace 3RDM:     24.0 =    4*    3*    2
(GOOD) Trace 2RDM:     12.0 =    4*    3
(GOOD) Trace 1RDM:      4.0 =    4

Producing the integrals
......production of INT took       1.36 sec

Energy_core =   -8.79989303
Energy      =  -15.65178729

WARNING: Have to use natural orbitals from CAASCF
         offdiagonal elements:    0.53321394

Basic ingredients written to int/
......savings of INGREDIENTS took       0.68 sec

Second-order:
perturber CCVV --        -0.010418421
perturber CCAV --        -0.002161145
perturber ACVV --        -0.045512943
