 &FCI NORB=6 ,NELEC=7 ,MS2=5,
  ORBSYM=1,1,1,1,1,1,
  ISYM=1,
 &END
  2.700914777035e-01    1  1  1  1
 -4.959279621643e-10    2  1  1  1
  6.991316289382e-03    2  1  2  1
  3.464496813207e-01    2  2  1  1
 -1.923997073213e-05    2  2  2  1
  8.657512497828e-01    2  2  2  2
  2.428710009998e-09    3  1  1  1
  3.117593875968e-05    3  1  2  2
  6.991316289594e-03    3  1  3  1
  3.116265915077e-05    3  2  2  1
  1.749383718308e-12    3  2  2  2
 -6.399100033314e-06    3  2  3  1
  1.873748887996e-02    3  2  3  2
  3.464496813199e-01    3  3  1  1
 -6.401817501929e-06    3  3  2  1
  8.282762720169e-01    3  3  2  2
  9.344398089346e-05    3  3  3  1
  1.748770875595e-12    3  3  3  2
  8.657512497708e-01    3  3  3  3
 -6.198407895017e-12    4  1  1  1
 -6.705866993163e-07    4  1  2  2
 -5.530770144360e-08    4  1  3  2
 -3.101906364874e-07    4  1  3  3
  6.991315756475e-03    4  1  4  1
 -6.705548286705e-07    4  2  2  1
 -5.530794663018e-08    4  2  3  1
  2.284937028852e-06    4  2  3  2
  3.652931928677e-07    4  2  3  3
 -2.407763359358e-04    4  2  4  1
  3.389264736536e-02    4  2  4  2
 -5.530791271384e-08    4  3  2  1
 -4.569874169486e-06    4  3  2  2
 -3.101572556162e-07    4  3  3  1
 -1.826465761458e-07    4  3  3  2
  1.134052371724e-03    4  3  4  1
  8.336826141024e-05    4  3  4  2
  3.351107622475e-02    4  3  4  3
  3.464496831828e-01    4  4  1  1
 -2.407811736518e-04    4  4  2  1
  7.979659614240e-01    4  4  2  2
  1.134075622292e-03    4  4  3  1
 -1.667364473516e-04    4  4  3  2
  7.987291033621e-01    4  4  3  3
  4.743062483216e-07    4  4  4  1
  8.657512625584e-01    4  4  4  4
 -9.041007719492e-08    5  1  2  2
  1.871545606934e-07    5  1  3  2
  2.432142716699e-08    5  1  3  3
  1.149950477918e-03    5  1  4  2
  2.440455068899e-04    5  1  4  3
 -1.761350021208e-08    5  1  4  4
  6.991315723741e-03    5  1  5  1
 -9.040656454115e-08    5  2  2  1
  1.871564445658e-07    5  2  3  1
 -2.308682007830e-07    5  2  3  2
  4.962956568931e-06    5  2  3  3
  1.149951064332e-03    5  2  4  1
  8.102008393163e-05    5  2  4  2
  1.499124076504e-02    5  2  4  3
  4.023529347452e-06    5  2  4  4
  2.471885341075e-04    5  2  5  1
  3.392702613679e-02    5  2  5  2
  1.871543932628e-07    5  3  2  1
  4.617364497081e-07    5  3  2  2
  2.432545730259e-08    5  3  3  1
 -2.481478193176e-06    5  3  3  2
  2.440456267287e-04    5  3  4  1
 -1.536780622306e-02    5  3  4  2
 -8.356462705431e-05    5  3  4  3
  7.154897707977e-07    5  3  4  4
 -1.165215881325e-03    5  3  5  1
 -8.117242201847e-05    5  3  5  2
  3.429837681131e-02    5  3  5  3
  1.149961189629e-03    5  4  2  1
 -1.620400922830e-04    5  4  2  2
  2.440477779385e-04    5  4  3  1
  3.765652822208e-04    5  4  3  2
  1.671291760591e-04    5  4  3  3
 -1.760929982870e-08    5  4  4  1
 -2.011763959590e-06    5  4  4  2
 -3.577447172897e-07    5  4  4  3
  5.193681912636e-07    5  4  5  1
  5.465605349197e-07    5  4  5  2
 -4.266666601640e-06    5  4  5  3
  3.391006137731e-02    5  4  5  4
  3.464496832807e-01    5  5  1  1
  2.471881222027e-04    5  5  2  1
  7.978972042338e-01    5  5  2  2
 -1.165213485636e-03    5  5  3  1
  1.623447659173e-04    5  5  3  2
  7.971545032447e-01    5  5  3  3
  5.193291895297e-07    5  5  4  1
 -1.093120766636e-06    5  5  4  2
  8.533332299161e-06    5  5  4  3
  7.979311401241e-01    5  5  4  4
  8.167391431670e-08    5  5  5  1
  8.657512631991e-01    5  5  5  5
 -3.392773978550e-08    6  1  1  1
 -1.357115765794e-03    6  1  2  2
 -2.477937622289e-12    6  1  3  1
 -5.887127745383e-07    6  1  3  2
 -1.354375799877e-03    6  1  3  3
  5.060380662563e-08    6  1  4  2
 -2.764881668922e-07    6  1  4  3
  7.058842573185e-04    6  1  4  4
 -5.791566480298e-07    6  1  5  2
 -7.603147217588e-08    6  1  5  3
  1.706634055105e-07    6  1  5  4
  6.507755547828e-04    6  1  5  5
  6.991315554225e-03    6  1  6  1
 -1.356945115497e-03    6  2  2  1
 -6.033721366898e-11    6  2  2  2
 -5.887183424002e-07    6  2  3  1
 -4.646727520224e-04    6  2  3  2
 -1.912222932905e-04    6  2  3  3
  5.060400603166e-08    6  2  4  1
  2.556777414197e-06    6  2  4  2
 -1.542313791464e-07    6  2  4  3
  3.731485157118e-03    6  2  4  4
 -5.791596334774e-07    6  2  5  1
  2.907370957547e-07    6  2  5  2
  4.743858941643e-06    6  2  5  3
 -1.714595441977e-02    6  2  5  4
 -3.540262866303e-03    6  2  5  5
  1.922320456610e-05    6  2  6  1
  3.896061991659e-02    6  2  6  2
 -2.303859170838e-12    6  3  1  1
 -5.887183030771e-07    6  3  2  1
  9.293457988441e-04    6  3  2  2
 -1.354205123622e-03    6  3  3  1
  9.561111663146e-05    6  3  3  2
  2.943548622898e-10    6  3  3  3
 -2.764884117955e-07    6  3  4  1
  5.460984033115e-07    6  3  4  2
  1.249931356970e-06    6  3  4  3
 -1.759645748587e-02    6  3  4  4
 -7.603190154856e-08    6  3  5  1
 -5.889384676499e-06    6  3  5  2
 -5.307589995966e-08    6  3  5  3
 -3.638698243591e-03    6  3  5  4
  1.666711170332e-02    6  3  5  5
 -9.342521119881e-05    6  3  6  1
 -2.195843106358e-06    6  3  6  2
  3.897084040029e-02    6  3  6  3
  5.060426167618e-08    6  4  2  1
 -5.113557331021e-06    6  4  2  2
 -2.764906873593e-07    6  4  3  1
 -3.918671698305e-07    6  4  3  2
 -2.499864294890e-06    6  4  3  3
  7.060736406839e-04    6  4  4  1
 -1.865742844070e-03    6  4  4  2
  8.798229992504e-03    6  4  4  3
  1.706657972283e-07    6  4  5  1
  8.921576543296e-03    6  4  5  2
  1.891077221645e-03    6  4  5  3
 -2.376613024209e-07    6  4  5  4
  7.613420311204e-06    6  4  5  5
 -1.301230383415e-08    6  4  6  1
 -3.639137821269e-07    6  4  6  2
  1.981728904380e-06    6  4  6  3
  2.420400104433e-02    6  4  6  4
 -5.791618583146e-07    6  5  2  1
 -5.814745185716e-07    6  5  2  2
 -7.603215202561e-08    6  5  3  1
  1.145526258557e-06    6  5  3  2
  1.061518012822e-07    6  5  3  3
  1.706657783896e-07    6  5  4  1
  8.224380518875e-03    6  5  4  2
  1.747621582693e-03    6  5  4  3
  4.753225914587e-07    6  5  4  4
  6.509644002892e-04    6  5  5  1
  1.770131727362e-03    6  5  5  2
 -8.333557239333e-03    6  5  5  3
 -3.806709515016e-06    6  5  5  4
  2.010898189266e-09    6  5  6  1
  4.493241706133e-06    6  5  6  2
  5.886129212527e-07    6  5  6  3
  2.544542598397e-06    6  5  6  4
  2.338232189078e-02    6  5  6  5
  3.464496838725e-01    6  6  1  1
  1.922072691496e-05    6  6  2  1
  7.878300125327e-01    6  6  2  2
 -9.341310542663e-05    6  6  3  1
  4.391677053231e-06    6  6  3  2
  7.878095716101e-01    6  6  3  3
 -1.304960565554e-08    6  6  4  1
  7.278278433860e-07    6  6  4  2
 -3.963459361180e-06    6  6  4  3
  8.173432661448e-01    6  6  4  4
  2.006735034390e-09    6  6  5  1
 -8.986485838296e-06    6  6  5  2
 -1.177226178414e-06    6  6  5  3
 -5.089084428299e-06    6  6  5  4
  8.189866245189e-01    6  6  5  5
  1.353859405116e-03    6  6  6  1
  5.804400683915e-11    6  6  6  2
 -2.807075834862e-10    6  6  6  3
  8.657512715672e-01    6  6  6  6
 -2.235639617119e+00    1  1  0  0
  1.294872222896e-08    2  1  0  0
 -4.402582966085e+00    2  2  0  0
 -6.327788695443e-08    3  1  0  0
 -4.402582966097e+00    3  3  0  0
  1.743957255575e-10    4  1  0  0
 -4.402582991811e+00    4  4  0  0
  1.967131946195e-11    5  1  0  0
 -4.402582993116e+00    5  5  0  0
  8.915495474799e-07    6  1  0  0
  3.667241830003e-12    6  2  0  0
 -2.303231519345e-11    6  3  0  0
 -4.402583001574e+00    6  6  0  0
    -88.448571604704   0  0  0  0
