#INFO: **** input file is /projects/bamu3429/BENCHMARK/fresh_atoms/MRPT/vtz/atoms/Mn_0/mrpt.py ****
import json
from pyscf import gto,scf,mcscf, fci, lo, ci, cc
from pyscf.scf import ROHF, UHF,ROKS
import numpy as np
import pandas as pd

# THIS IS WERE IT STARTS ====================================

df=json.load(open("../../../trail.json"))

spins={'Sc':1, 'Ti':2, 'V':3, 'Cr':6, 'Mn':5, 'Fe':4, 'Cu':1}

nd={'Sc':(1,0), 'Ti':(2,0), 'V':(3,0), 'Cr':(5,0), 'Mn':(5,0), 'Fe':(5,1), 'Cu':(5,5)}

cas={'Sc':3, 'Ti':4, 'V':5, 'Cr':6, 'Mn':7, 'Fe':8, 'Cu':11}

datacsv={}
for nm in ['atom','charge','method','basis','pseudopotential','hf',
           'totalenergy','totalenergy-stocherr','totalenergy-syserr']:
  datacsv[nm]=[]

basis='vtz'
el='Mn'
charge=0

mol=gto.Mole()
mol.ecp={}
mol.basis={}
mol.ecp[el]=gto.basis.parse_ecp(df[el]['ecp'])
mol.basis[el]=gto.basis.parse(df[el][basis])
mol.charge=charge
if el == 'Cr' or el == 'Cu':
  mol.spin=spins[el]-charge
else:
  mol.spin=spins[el]+charge
mol.build(atom="%s 0. 0. 0."%el,verbose=4)

m=ROHF(mol)
m.level_shift=1000.0
dm=m.from_chk("../../../../HF/atoms/"+el+basis+str(charge)+".chk")
hf=m.kernel(dm)
m.analyze()

from pyscf.shciscf import shci
mc = shci.SHCISCF(m, 6, cas[el]-charge)
#mc.fcisolver.conv_tol = 1e-14
mc.fcisolver.mpiprefix="mpirun -np 28"
mc.fcisolver.num_thrds=12
mc.verbose = 4
cas=mc.kernel()[0]
 
from pyscf.icmpspt import icmpspt
pt=icmpspt.icmpspt(mc,rdmM=500, PTM=1000,\
                          pttype="MRLCC",\
                          third_order=True,\
                          fully_ic=True,\
                          do_dm4=True)

datacsv['atom'].append(el)
datacsv['charge'].append(charge)
datacsv['method'].append('MRPT')
datacsv['basis'].append(basis)
datacsv['pseudopotential'].append('trail')
datacsv['hf'].append(hf)
datacsv['totalenergy'].append(cas+pt)
datacsv['totalenergy-stocherr'].append(0.0)
datacsv['totalenergy-syserr'].append(0.0)
pd.DataFrame(datacsv).to_csv(el+".csv",index=False)

#INFO: ******************** input file end ********************


System: ('Linux', 'bnode0304.rc.int.colorado.edu', '3.10.0-514.41.1.el7.x86_64', '#1 SMP Wed Jan 17 10:26:16 EST 2018', 'x86_64', 'x86_64')  Threads 28
Python 2.7.11 (default, Mar 22 2016, 01:42:54) 
[GCC Intel(R) C++ gcc 4.8 mode]
numpy 1.11.1  scipy 0.17.1
Date: Thu Mar 29 14:58:51 2018
PySCF version 1.4
PySCF path  /projects/bamu3429/softwares/pyscf_uptodate/pyscf
GIT ORIG_HEAD e2292e6edec2b0e0024c21b81de03db1d7bd4121
GIT HEAD      ref: refs/heads/master
GIT master branch  f3591ef22170896a4cdc2aadaa6f5da388ffcadb

[INPUT] VERBOSE 4
[INPUT] num atoms = 1
[INPUT] num electrons = 15
[INPUT] charge = 0
[INPUT] spin (= nelec alpha-beta = 2S) = 5
[INPUT] symmetry False subgroup None
[INPUT]  1 Mn     0.000000000000   0.000000000000   0.000000000000 AA    0.000000000000   0.000000000000   0.000000000000 Bohr
[INPUT] ---------------- BASIS SET ---------------- 
[INPUT] l, kappa, [nprim/nctr], expnt,             c_1 c_2 ...
[INPUT] Mn
[INPUT] 0    0    [12   /1   ]  41.19094709       0.0124
                                21.94503151       -0.141461
                                12.89081507       0.669584
                                8.14876869        -1.015431
                                3.94904809        0.149151
                                1.91298055        0.350677
                                1.10736282        0.627006
                                0.4793266         0.235349
                                0.22675293        -0.024214
                                0.10639652        0.017357
                                0.05000494        -0.005272
                                0.0234982         0.002181
[INPUT] 0    0    [12   /1   ]  41.19094709       -0.002036
                                21.94503151       0.02709
                                12.89081507       -0.142056
                                8.14876869        0.229945
                                3.94904809        -0.035538
                                1.91298055        -0.085336
                                1.10736282        -0.24355
                                0.4793266         -0.201798
                                0.22675293        0.098761
                                0.10639652        0.439512
                                0.05000494        0.524416
                                0.0234982         0.13192
[INPUT] 0    0    [12   /1   ]  41.19094709       -0.004646
                                21.94503151       0.0905
                                12.89081507       -0.585022
                                8.14876869        1.111867
                                3.94904809        -0.363063
                                1.91298055        -1.33458
                                1.10736282        0.12279
                                0.4793266         0.708339
                                0.22675293        0.760146
                                0.10639652        0.035304
                                0.05000494        -0.576692
                                0.0234982         -0.237352
[INPUT] 0    0    [12   /1   ]  41.19094709       -0.002383
                                21.94503151       0.092523
                                12.89081507       -0.733494
                                8.14876869        1.604539
                                3.94904809        -0.989623
                                1.91298055        -2.287095
                                1.10736282        2.091286
                                0.4793266         1.469902
                                0.22675293        -1.522953
                                0.10639652        -0.860672
                                0.05000494        0.655242
                                0.0234982         0.514686
[INPUT] 0    0    [1    /1   ]  0.0234982            1
[INPUT] 0    0    [1    /1   ]  0.01104221           1
[INPUT] 1    0    [12   /1   ]  60.1913049        0.000757
                                31.1792672        -0.006538
                                16.24276866       0.042902
                                8.80021485        -0.164602
                                5.33575038        0.099387
                                3.0325056         0.217723
                                1.63861968        0.443669
                                0.80258711        0.32785
                                0.40627833        0.098641
                                0.17382998        0.011768
                                0.07306386        -0.000703
                                0.03071005        0.000403
[INPUT] 1    0    [12   /1   ]  60.1913049        -0.000118
                                31.1792672        0.001208
                                16.24276866       -0.009122
                                8.80021485        0.038924
                                5.33575038        -0.027473
                                3.0325056         -0.058215
                                1.63861968        -0.124371
                                0.80258711        -0.107355
                                0.40627833        0.040741
                                0.17382998        0.350952
                                0.07306386        0.523294
                                0.03071005        0.234255
[INPUT] 1    0    [12   /1   ]  60.1913049        -0.000242
                                31.1792672        -0.00184
                                16.24276866       0.036267
                                8.80021485        -0.233302
                                5.33575038        0.180046
                                3.0325056         0.831949
                                1.63861968        0.087927
                                0.80258711        -0.875277
                                0.40627833        -0.420967
                                0.17382998        0.588099
                                0.07306386        0.409206
                                0.03071005        0.007901
[INPUT] 1    0    [12   /1   ]  60.1913049        -0.000706
                                31.1792672        -0.000652
                                16.24276866       0.057679
                                8.80021485        -0.540394
                                5.33575038        1.073974
                                3.0325056         0.867896
                                1.63861968        -1.570127
                                0.80258711        -0.63828
                                0.40627833        1.540496
                                0.17382998        -0.071965
                                0.07306386        -0.646393
                                0.03071005        -0.005855
[INPUT] 1    0    [1    /1   ]  0.03071005           1
[INPUT] 1    0    [1    /1   ]  0.01290798           1
[INPUT] 2    0    [10   /1   ]  52.56900844       0.000307
                                23.81654224       -0.007961
                                11.32693504       0.114253
                                4.99176622        0.164228
                                2.46839125        0.269996
                                1.15974738        0.320627
                                0.53124091        0.273188
                                0.24220121        0.161357
                                0.11248934        0.058244
                                0.05201371        0.009574
[INPUT] 2    0    [10   /1   ]  52.56900844       0.000329
                                23.81654224       0.004981
                                11.32693504       -0.107244
                                4.99176622        -0.205338
                                2.46839125        -0.365645
                                1.15974738        -0.091627
                                0.53124091        0.261299
                                0.24220121        0.408087
                                0.11248934        0.283046
                                0.05201371        0.07082
[INPUT] 2    0    [10   /1   ]  52.56900844       -0.002087
                                23.81654224       0.00277
                                11.32693504       0.106828
                                4.99176622        0.384896
                                2.46839125        0.360764
                                1.15974738        -0.599205
                                0.53124091        -0.495286
                                0.24220121        0.247074
                                0.11248934        0.472515
                                0.05201371        0.138768
[INPUT] 2    0    [1    /1   ]  0.05201371           1
[INPUT] 2    0    [1    /1   ]  0.02405051           1
[INPUT] 3    0    [1    /1   ]  3.339139             1
[INPUT] 3    0    [1    /1   ]  0.926076             1
[INPUT] 3    0    [1    /1   ]  0.25683768           1
[INPUT] 4    0    [1    /1   ]  2.982582             1
[INPUT] 4    0    [1    /1   ]  0.82718854           1
nuclear repulsion = 0
number of shells = 22
number of NR pGTOs = 399
number of NR cGTOs = 88
basis = {'Mn': [[0, [41.19094709, 0.0124], [21.94503151, -0.141461], [12.89081507, 0.669584], [8.14876869, -1.015431], [3.94904809, 0.149151], [1.91298055, 0.350677], [1.10736282, 0.627006], [0.4793266, 0.235349], [0.22675293, -0.024214], [0.10639652, 0.017357], [0.05000494, -0.005272], [0.0234982, 0.002181]], [0, [41.19094709, -0.002036], [21.94503151, 0.02709], [12.89081507, -0.142056], [8.14876869, 0.229945], [3.94904809, -0.035538], [1.91298055, -0.085336], [1.10736282, -0.24355], [0.4793266, -0.201798], [0.22675293, 0.098761], [0.10639652, 0.439512], [0.05000494, 0.524416], [0.0234982, 0.13192]], [0, [41.19094709, -0.004646], [21.94503151, 0.0905], [12.89081507, -0.585022], [8.14876869, 1.111867], [3.94904809, -0.363063], [1.91298055, -1.33458], [1.10736282, 0.12279], [0.4793266, 0.708339], [0.22675293, 0.760146], [0.10639652, 0.035304], [0.05000494, -0.576692], [0.0234982, -0.237352]], [0, [41.19094709, -0.002383], [21.94503151, 0.092523], [12.89081507, -0.733494], [8.14876869, 1.604539], [3.94904809, -0.989623], [1.91298055, -2.287095], [1.10736282, 2.091286], [0.4793266, 1.469902], [0.22675293, -1.522953], [0.10639652, -0.860672], [0.05000494, 0.655242], [0.0234982, 0.514686]], [0, [0.0234982, 1.0]], [0, [0.01104221, 1.0]], [1, [60.1913049, 0.000757], [31.1792672, -0.006538], [16.24276866, 0.042902], [8.80021485, -0.164602], [5.33575038, 0.099387], [3.0325056, 0.217723], [1.63861968, 0.443669], [0.80258711, 0.32785], [0.40627833, 0.098641], [0.17382998, 0.011768], [0.07306386, -0.000703], [0.03071005, 0.000403]], [1, [60.1913049, -0.000118], [31.1792672, 0.001208], [16.24276866, -0.009122], [8.80021485, 0.038924], [5.33575038, -0.027473], [3.0325056, -0.058215], [1.63861968, -0.124371], [0.80258711, -0.107355], [0.40627833, 0.040741], [0.17382998, 0.350952], [0.07306386, 0.523294], [0.03071005, 0.234255]], [1, [60.1913049, -0.000242], [31.1792672, -0.00184], [16.24276866, 0.036267], [8.80021485, -0.233302], [5.33575038, 0.180046], [3.0325056, 0.831949], [1.63861968, 0.087927], [0.80258711, -0.875277], [0.40627833, -0.420967], [0.17382998, 0.588099], [0.07306386, 0.409206], [0.03071005, 0.007901]], [1, [60.1913049, -0.000706], [31.1792672, -0.000652], [16.24276866, 0.057679], [8.80021485, -0.540394], [5.33575038, 1.073974], [3.0325056, 0.867896], [1.63861968, -1.570127], [0.80258711, -0.63828], [0.40627833, 1.540496], [0.17382998, -0.071965], [0.07306386, -0.646393], [0.03071005, -0.005855]], [1, [0.03071005, 1.0]], [1, [0.01290798, 1.0]], [2, [52.56900844, 0.000307], [23.81654224, -0.007961], [11.32693504, 0.114253], [4.99176622, 0.164228], [2.46839125, 0.269996], [1.15974738, 0.320627], [0.53124091, 0.273188], [0.24220121, 0.161357], [0.11248934, 0.058244], [0.05201371, 0.009574]], [2, [52.56900844, 0.000329], [23.81654224, 0.004981], [11.32693504, -0.107244], [4.99176622, -0.205338], [2.46839125, -0.365645], [1.15974738, -0.091627], [0.53124091, 0.261299], [0.24220121, 0.408087], [0.11248934, 0.283046], [0.05201371, 0.07082]], [2, [52.56900844, -0.002087], [23.81654224, 0.00277], [11.32693504, 0.106828], [4.99176622, 0.384896], [2.46839125, 0.360764], [1.15974738, -0.599205], [0.53124091, -0.495286], [0.24220121, 0.247074], [0.11248934, 0.472515], [0.05201371, 0.138768]], [2, [0.05201371, 1.0]], [2, [0.02405051, 1.0]], [3, [3.339139, 1.0]], [3, [0.926076, 1.0]], [3, [0.25683768, 1.0]], [4, [2.982582, 1.0]], [4, [0.82718854, 1.0]]]}
ecp = {'Mn': [10, [[-1, [[], [[18.43432244, 15.0]], [[12.74175213, 31301.56494509], [11.67410914, -4576.3546318], [12.90376156, -26766.73507377], [4.97171871, -4.09339906]], [[8.79264819, 276.51483655]]]], [0, [[], [], [[13.56187871, 2771.78238977], [9.44812535, 12553.69429672], [10.76503846, 1886.79316638], [11.65345594, -9260.55332402], [8.48073002, -8943.95003535], [6.96707028, 1041.73211249]], []]], [1, [[], [], [[12.71342918, -23181.32761179], [18.03174513, 111577.22220216], [16.6827906, -42399.84416473], [13.18867124, 16025.79106608], [18.42861128, -76264.60573764], [12.90928974, 14270.47832347]], []]], [2, [[], [], [[8.13384228, -382.83904013], [14.28699222, 5676.99013005], [11.14406629, 35338.03440844], [11.37674978, -38881.44458388], [18.25818233, 3550.6602642], [17.73146307, -5317.47975296]], []]]]]}
CPU time:         3.59


******** <class 'pyscf.scf.rohf.ROHF'> flags ********
method = ROHF
initial guess = minao
damping factor = 0
level shift factor = 1000.0
DIIS = <class 'pyscf.scf.diis.CDIIS'>
DIIS start cycle = 1
DIIS space = 8
SCF tol = 1e-09
SCF gradient tol = None
max. SCF cycles = 50
direct_scf = True
direct_scf_tol = 1e-13
chkfile to save SCF result = /projects/bamu3429/BENCHMARK/fresh_atoms/MRPT/vtz/atoms/Mn_0/tmpxjwz5p
max_memory 4000 MB (current use 159 MB)
num. doubly occ = 5  num. singly occ = 5
Set gradient conv threshold to 3.16228e-05
init E= -103.517004834416
  HOMO = 499.865411208149  LUMO = 1000.01942792635
cycle= 1 E= -103.517004834416  delta_E= -1.71e-13  |g|= 2.9e-06  |ddm|= 8.11e-09
  HOMO = -0.134588792643559  LUMO = 0.0194279263462952
Extra cycle  E= -103.517004834416  delta_E= -4.83e-13  |g|= 8.72e-07  |ddm|= 9.59e-06
converged SCF energy = -103.517004834416
**** MO energy ****
                Roothaan           | alpha              | beta
MO #1   energy= -4.0140785096528   | -4.23235593748292  | -3.79580108182267  occ= 2
MO #2   energy= -2.52129249989403  | -2.78634299072062  | -2.25624200906744  occ= 2
MO #3   energy= -2.52129249935723  | -2.78634299113575  | -2.25624200757871  occ= 2
MO #4   energy= -2.52129249013164  | -2.78634299963556  | -2.25624198062772  occ= 2
MO #5   energy= -0.250778050072069 | -0.268256346108273 | -0.233299754035385 occ= 2
MO #6   energy= -0.134588804056023 | -0.630223268978819 | 0.361045713567309  occ= 1
MO #7   energy= -0.134588804053903 | -0.630223269022201 | 0.361045713569131  occ= 1
MO #8   energy= -0.134588795774829 | -0.630223272417575 | 0.361045727786796  occ= 1
MO #9   energy= -0.134588795361832 | -0.630223272392601 | 0.361045728523412  occ= 1
MO #10  energy= -0.134588792643559 | -0.630223274085736 | 0.361045733150989  occ= 1
MO #11  energy= 0.0194279263462952 | 0.0180492295935228 | 0.0208066230990704 occ= 0
MO #12  energy= 0.0194279264277242 | 0.0180492297551922 | 0.0208066231002638 occ= 0
MO #13  energy= 0.0194279279029738 | 0.0180492326409141 | 0.0208066231650353 occ= 0
MO #14  energy= 0.0235557294687083 | 0.0228693483398362 | 0.0242421105975775 occ= 0
MO #15  energy= 0.0639108197083474 | 0.0601775157015985 | 0.0676441237150938 occ= 0
MO #16  energy= 0.0639108197249831 | 0.0601775159474686 | 0.0676441235024862 occ= 0
MO #17  energy= 0.0639108197733567 | 0.0601775200702826 | 0.0676441194764354 occ= 0
MO #18  energy= 0.0729686348190785 | 0.07276052183849   | 0.0731767703638294 occ= 0
MO #19  energy= 0.0729686348215121 | 0.0727605218408479 | 0.073176770365926  occ= 0
MO #20  energy= 0.0729686376696695 | 0.0727605247478508 | 0.0731767732126398 occ= 0
MO #21  energy= 0.0729686378315249 | 0.0727605249120398 | 0.073176773370192  occ= 0
MO #22  energy= 0.0729686387251291 | 0.0727605258270816 | 0.0731767742743778 occ= 0
MO #23  energy= 0.19538227571968   | 0.187744088901019  | 0.203020462538344  occ= 0
MO #24  energy= 0.22267646809907   | 0.218371460868048  | 0.226981382771729  occ= 0
MO #25  energy= 0.222676468109125  | 0.218371460875675  | 0.226981382774686  occ= 0
MO #26  energy= 0.222676474595126  | 0.218371468290257  | 0.226981389162618  occ= 0
MO #27  energy= 0.222676474987841  | 0.218371468719687  | 0.226981389509339  occ= 0
MO #28  energy= 0.222676476963418  | 0.21837147103317   | 0.226981391556769  occ= 0
MO #29  energy= 0.259749725712867  | 0.245680932488502  | 0.273818518937222  occ= 0
MO #30  energy= 0.2597497259905    | 0.245680933349872  | 0.273818518631124  occ= 0
MO #31  energy= 0.25974973063673   | 0.245680948728375  | 0.273818512545086  occ= 0
MO #32  energy= 0.897041084319915  | 0.848445516198223  | 0.945636681165907  occ= 0
MO #33  energy= 0.897041084352591  | 0.848445516219782  | 0.945636681177727  occ= 0
MO #34  energy= 0.897041089969723  | 0.848445527851248  | 0.945636684717582  occ= 0
MO #35  energy= 0.897041090435682  | 0.848445528575752  | 0.945636684976241  occ= 0
MO #36  energy= 0.897041091850374  | 0.848445532085646  | 0.945636685976725  occ= 0
MO #37  energy= 0.906323889487326  | 0.8777499631364    | 0.934897815838235  occ= 0
MO #38  energy= 0.93357555424541   | 0.91817994142233   | 0.948971167068489  occ= 0
MO #39  energy= 0.933575554245562  | 0.918179941422485  | 0.948971167068639  occ= 0
MO #40  energy= 0.933575568514326  | 0.918179959712304  | 0.948971177316344  occ= 0
MO #41  energy= 0.933575568545937  | 0.918179959750031  | 0.948971177341842  occ= 0
MO #42  energy= 0.933575576668298  | 0.91817997019346   | 0.948971183143136  occ= 0
MO #43  energy= 0.933575577612315  | 0.918179971385776  | 0.948971183838848  occ= 0
MO #44  energy= 0.933575580033883  | 0.918179974509     | 0.948971185558761  occ= 0
MO #45  energy= 1.83998775209313   | 1.78278800855386   | 1.89718749563241   occ= 0
MO #46  energy= 1.83998775295848   | 1.78278800981174   | 1.89718749610521   occ= 0
MO #47  energy= 1.83998776818373   | 1.78278803255027   | 1.89718750381717   occ= 0
MO #48  energy= 3.13998204291632   | 3.04419328406988   | 3.23577080176277   occ= 0
MO #49  energy= 3.13998204291647   | 3.04419328407006   | 3.23577080176288   occ= 0
MO #50  energy= 3.13998205370982   | 3.04419329891286   | 3.23577080850678   occ= 0
MO #51  energy= 3.13998205373543   | 3.04419329894613   | 3.23577080852471   occ= 0
MO #52  energy= 3.13998205986196   | 3.04419330738371   | 3.23577081234022   occ= 0
MO #53  energy= 3.13998206059161   | 3.04419330836182   | 3.2357708128214    occ= 0
MO #54  energy= 3.13998206241167   | 3.04419331087597   | 3.23577081394737   occ= 0
MO #55  energy= 3.76372463709011   | 3.72841915156847   | 3.79903012261175   occ= 0
MO #56  energy= 3.76372463709014   | 3.72841915156849   | 3.79903012261177   occ= 0
MO #57  energy= 3.76372464901794   | 3.72841916737185   | 3.799030130664     occ= 0
MO #58  energy= 3.76372464901868   | 3.72841916737273   | 3.79903013066464   occ= 0
MO #59  energy= 3.76372465749736   | 3.72841917862264   | 3.79903013637208   occ= 0
MO #60  energy= 3.76372465755798   | 3.72841917869803   | 3.79903013641792   occ= 0
MO #61  energy= 3.76372466220008   | 3.72841918487632   | 3.79903013952384   occ= 0
MO #62  energy= 3.7637246631621    | 3.72841918612109   | 3.79903014020312   occ= 0
MO #63  energy= 3.76372466443625   | 3.72841918782612   | 3.79903014104638   occ= 0
MO #64  energy= 3.80792389697757   | 3.70392534785422   | 3.91192243471716   occ= 0
MO #65  energy= 3.80792389699528   | 3.70392534787718   | 3.91192243472368   occ= 0
MO #66  energy= 3.80792390071778   | 3.7039253496634    | 3.91192244134025   occ= 0
MO #67  energy= 3.80792390098742   | 3.70392534985622   | 3.91192244171083   occ= 0
MO #68  energy= 3.80792390198098   | 3.70392535015375   | 3.91192244377934   occ= 0
MO #69  energy= 4.93486874188803   | 4.8635288486604    | 5.00620863511563   occ= 0
MO #70  energy= 7.47255519496631   | 7.39744469873092   | 7.5476656912017    occ= 0
MO #71  energy= 7.47255519543178   | 7.39744469872468   | 7.54766569213885   occ= 0
MO #72  energy= 7.47255520384327   | 7.39744469824695   | 7.54766570943962   occ= 0
MO #73  energy= 9.95560909572303   | 9.8263182599814    | 10.0848999314646   occ= 0
MO #74  energy= 9.9556090957231    | 9.82631825998141   | 10.0848999314648   occ= 0
MO #75  energy= 9.95560909710451   | 9.82631825452773   | 10.0848999396813   occ= 0
MO #76  energy= 9.95560909710969   | 9.82631825452642   | 10.084899939693    occ= 0
MO #77  energy= 9.95560909786239   | 9.82631825128724   | 10.0848999444376   occ= 0
MO #78  energy= 9.95560909794898   | 9.82631825097257   | 10.0848999449254   occ= 0
MO #79  energy= 9.9556090981681    | 9.82631824997176   | 10.0848999463644   occ= 0
MO #80  energy= 13.1341814534829   | 13.0488448963233   | 13.2195180106426   occ= 0
MO #81  energy= 13.134181453483    | 13.0488448963233   | 13.2195180106426   occ= 0
MO #82  energy= 13.1341814558022   | 13.0488448962218   | 13.2195180153826   occ= 0
MO #83  energy= 13.1341814558023   | 13.0488448962219   | 13.2195180153827   occ= 0
MO #84  energy= 13.1341814574587   | 13.0488448961291   | 13.2195180187883   occ= 0
MO #85  energy= 13.134181457468    | 13.048844896131    | 13.2195180188051   occ= 0
MO #86  energy= 13.1341814583847   | 13.0488448960682   | 13.2195180207011   occ= 0
MO #87  energy= 13.1341814585558   | 13.0488448960669   | 13.2195180210448   occ= 0
MO #88  energy= 13.1341814588124   | 13.0488448960458   | 13.2195180215789   occ= 0
 ** Mulliken pop on meta-lowdin orthogonal AOs  **
 ** Mulliken pop  **
pop of  0Mn 3s        1.99998
pop of  0Mn 4s        1.99913
pop of  0Mn 5s        0.00044
pop of  0Mn 6s        0.00017
pop of  0Mn 7s        0.00018
pop of  0Mn 8s        0.00011
pop of  0Mn 3px       1.99993
pop of  0Mn 3py       1.99993
pop of  0Mn 3pz       1.99993
pop of  0Mn 4px       0.00005
pop of  0Mn 4py       0.00005
pop of  0Mn 4pz       0.00005
pop of  0Mn 5px       0.00001
pop of  0Mn 5py       0.00001
pop of  0Mn 5pz       0.00001
pop of  0Mn 6px       0.00000
pop of  0Mn 6py       0.00000
pop of  0Mn 6pz       0.00000
pop of  0Mn 7px       0.00000
pop of  0Mn 7py       0.00000
pop of  0Mn 7pz       0.00000
pop of  0Mn 8px       0.00000
pop of  0Mn 8py       0.00000
pop of  0Mn 8pz       0.00000
pop of  0Mn 3dxy      0.99600
pop of  0Mn 3dyz      0.99600
pop of  0Mn 3dz^2     0.99600
pop of  0Mn 3dxz      0.99600
pop of  0Mn 3dx2-y2    0.99600
pop of  0Mn 4dxy      0.00318
pop of  0Mn 4dyz      0.00318
pop of  0Mn 4dz^2     0.00318
pop of  0Mn 4dxz      0.00318
pop of  0Mn 4dx2-y2    0.00318
pop of  0Mn 5dxy      0.00020
pop of  0Mn 5dyz      0.00020
pop of  0Mn 5dz^2     0.00020
pop of  0Mn 5dxz      0.00020
pop of  0Mn 5dx2-y2    0.00020
pop of  0Mn 6dxy      0.00059
pop of  0Mn 6dyz      0.00059
pop of  0Mn 6dz^2     0.00059
pop of  0Mn 6dxz      0.00059
pop of  0Mn 6dx2-y2    0.00059
pop of  0Mn 7dxy      0.00004
pop of  0Mn 7dyz      0.00004
pop of  0Mn 7dz^2     0.00004
pop of  0Mn 7dxz      0.00004
pop of  0Mn 7dx2-y2    0.00004
pop of  0Mn 4fy^3     0.00000
pop of  0Mn 4fxyz     0.00000
pop of  0Mn 4fyz^2    0.00000
pop of  0Mn 4fz^3     0.00000
pop of  0Mn 4fxz^2    0.00000
pop of  0Mn 4fzx^2    0.00000
pop of  0Mn 4fx^3     0.00000
pop of  0Mn 5fy^3     0.00000
pop of  0Mn 5fxyz     0.00000
pop of  0Mn 5fyz^2    0.00000
pop of  0Mn 5fz^3     0.00000
pop of  0Mn 5fxz^2    0.00000
pop of  0Mn 5fzx^2    0.00000
pop of  0Mn 5fx^3     0.00000
pop of  0Mn 6fy^3     0.00000
pop of  0Mn 6fxyz     0.00000
pop of  0Mn 6fyz^2    0.00000
pop of  0Mn 6fz^3     0.00000
pop of  0Mn 6fxz^2    0.00000
pop of  0Mn 6fzx^2    0.00000
pop of  0Mn 6fx^3     0.00000
pop of  0Mn 5g-4      0.00000
pop of  0Mn 5g-3      0.00000
pop of  0Mn 5g-2      0.00000
pop of  0Mn 5g-1      0.00000
pop of  0Mn 5g 0      0.00000
pop of  0Mn 5g 1      0.00000
pop of  0Mn 5g 2      0.00000
pop of  0Mn 5g 3      0.00000
pop of  0Mn 5g 4      0.00000
pop of  0Mn 6g-4      0.00000
pop of  0Mn 6g-3      0.00000
pop of  0Mn 6g-2      0.00000
pop of  0Mn 6g-1      0.00000
pop of  0Mn 6g 0      0.00000
pop of  0Mn 6g 1      0.00000
pop of  0Mn 6g 2      0.00000
pop of  0Mn 6g 3      0.00000
pop of  0Mn 6g 4      0.00000
 ** Mulliken atomic charges  **
charge of  0Mn =     -0.00000

******** <class 'pyscf.mcscf.mc1step.CASSCF'> flags ********
CAS (6e+1e, 6o), ncore = 4, nvir = 78
max_cycle_macro = 50
max_cycle_micro = 4
conv_tol = 1e-07
conv_tol_grad = None
orbital rotation max_stepsize = 0.02
augmented hessian ah_max_cycle = 30
augmented hessian ah_conv_tol = 1e-12
augmented hessian ah_linear dependence = 1e-14
augmented hessian ah_level shift = 0
augmented hessian ah_start_tol = 2.5
augmented hessian ah_start_cycle = 3
augmented hessian ah_grad_trust_region = 3
kf_trust_region = 3
kf_interval = 4
ci_response_space = 4
ci_grad_trust_region = 3
with_dep4 0
natorb = False
canonicalization = True
chkfile = ./scratch/111251/tmpx83tsE
max_memory 4000 MB (current use 269 MB)
internal_rotation = False

******** SHCI flags ********
executable             = /home/bamu3429/softwares/dice/Dice
mpiprefix              = mpirun -np 28
scratchDirectory       = ./scratch/111251
integralFile           = ./FCIDUMP
configFile             = ./input.dat
outputFile             = ./output.dat
maxIter                = 6
sweep_iter             = []
sweep_epsilon          = []
nPTiter                = 0
Stochastic             = True
fullrestart            = False
restart                = False
num_thrds              = 12
memory                 = None

CASCI E = -103.517004834417  S^2 = 8.7500000
Set conv_tol_grad to 0.000316228
macro iter 1 (1 JK  1 micro), CASSCF E = -103.517004834417  dE = 0  S^2 = 8.7500000
               |grad[o]|=8.64e-07  |grad[c]|= None  |ddm|=    0
1-step CASSCF converged in 1 macro (1 JK 1 micro) steps
CASSCF canonicalization
CASSCF energy = -103.517004834417


--------------------------------------------------
                 ICMPSPT CALCULATION              
--------------------------------------------------

Perturbation type: MRLCC
With fully internally contracted scheme
With third order correction

Preparing necessary RDMs
......production of RDMs took       0.91 sec
Reading binary 4RDM from DICE
......reading the RDM took          1.03 sec

(GOOD) Trace 4RDM:    840.0 =    7*    6*    5*    4
(GOOD) Trace 3RDM:    210.0 =    7*    6*    5
(GOOD) Trace 2RDM:     42.0 =    7*    6
(GOOD) Trace 1RDM:      7.0 =    7

Producing the integrals
......production of INT took      89.86 sec

Energy_core =  -88.4485716047
Energy      =  -103.517004834

WARNING: Have to use natural orbitals from CAASCF
         offdiagonal elements: 0.828108926879

Basic ingredients written to int/
......savings of INGREDIENTS took      17.76 sec

Second-order:
perturber CCVV --        -0.099047233
perturber CCAV --        -0.044945273
perturber ACVV --        -0.159871020
perturber CCAA --        -0.028354072
perturber AAVV --        -0.140100779
perturber CAAV --        -0.116573001
perturber AAAV --        -0.004429528
perturber AAAC --        -0.000000000
Total:                   -0.593320908

Third-order:              0.002691542

Total PT       --        -0.590629366

