 &FCI NORB=6 ,NELEC=5 ,MS2=5,
  ORBSYM=1,1,1,1,1,1,
  ISYM=1,
 &END
  7.451079091848e-01    1  1  1  1
  5.031634754331e-09    2  1  1  1
  1.616896403253e-02    2  1  2  1
  7.127700174600e-01    2  2  1  1
  4.290274603466e-09    2  2  2  1
  7.451079805956e-01    2  2  2  2
 -3.160205097245e-09    3  1  1  1
  8.554333946048e-04    3  1  2  1
  8.619161754029e-04    3  1  2  2
  2.835640111178e-02    3  1  3  1
 -1.710872168599e-03    3  2  1  1
 -4.309622758661e-04    3  2  2  1
  2.729039194615e-09    3  2  2  2
 -2.468881974590e-04    3  2  3  1
  2.573395918115e-02    3  2  3  2
  6.883950475586e-01    3  3  1  1
  4.937820008744e-04    3  3  2  1
  6.936400804492e-01    3  3  2  2
 -3.801568120843e-09    3  3  3  1
 -1.001807699892e-08    3  3  3  2
  7.451077938149e-01    3  3  3  3
  3.164448152896e-09    4  1  1  1
  1.253849161778e-03    4  1  2  1
 -1.743693304333e-03    4  1  2  2
  3.426597575894e-04    4  1  3  1
 -1.085157382844e-02    4  1  3  2
  1.588589970386e-03    4  1  3  3
  2.866442615848e-02    4  1  4  1
 -2.507670374969e-03    4  2  1  1
  8.718416856355e-04    4  2  2  1
  1.922357698869e-08    4  2  2  2
  1.317926887423e-02    4  2  3  1
  2.489710201352e-04    4  2  3  2
  4.849162837683e-03    4  2  3  3
  5.855717911122e-05    4  2  4  1
  3.066149462672e-02    4  2  4  2
 -6.853424468392e-04    4  3  1  1
 -2.327774714990e-03    4  3  2  1
 -4.979510112151e-04    4  3  2  2
 -7.942979809413e-04    4  3  3  1
 -2.424573871058e-03    4  3  3  2
 -6.076974615433e-09    4  3  3  3
 -1.071421388586e-03    4  3  4  1
 -2.869505338375e-04    4  3  4  2
  2.805948584970e-02    4  3  4  3
  6.877789938310e-01    4  4  1  1
 -1.171307247415e-04    4  4  2  1
  6.837846795113e-01    4  4  2  2
  2.142749742834e-03    4  4  3  1
  5.738983635366e-04    4  4  3  2
  6.889887619030e-01    4  4  3  3
 -2.250757320213e-09    4  4  4  1
 -6.450201439189e-08    4  4  4  2
  1.256450611115e-09    4  4  4  3
  7.451077032958e-01    4  4  4  4
  1.459696105762e-08    5  1  1  1
  2.551508631184e-03    5  1  2  1
 -5.578057047120e-04    5  1  2  2
 -2.660250784394e-04    5  1  3  1
  2.999392711737e-03    5  1  3  2
 -5.140889550984e-04    5  1  3  3
  1.019180123013e-03    5  1  4  1
 -1.020601590362e-03    5  1  4  2
 -1.415998226993e-02    5  1  4  3
  1.071890510695e-03    5  1  4  4
  3.190680235307e-02    5  1  5  1
 -5.102901231711e-03    5  2  1  1
  2.789090009021e-04    5  2  2  1
  1.071006611080e-07    5  2  2  2
 -4.014903212284e-03    5  2  3  1
  5.806848976085e-04    5  2  3  2
  1.598913635913e-02    5  2  3  3
  7.082302025070e-04    5  2  4  1
  3.924885954237e-04    5  2  4  2
 -4.530328546710e-04    5  2  4  3
 -1.088622047490e-02    5  2  4  4
  1.883226632308e-04    5  2  5  1
  3.253212385868e-02    5  2  5  2
  5.320548885942e-04    5  3  1  1
  1.015528988095e-03    5  3  2  1
 -1.161378543187e-03    5  3  2  2
  2.570374308551e-04    5  3  3  1
 -7.994538898223e-03    5  3  3  2
 -8.946231650597e-09    5  3  3  3
  9.717867991795e-03    5  3  4  1
 -3.192739121709e-04    5  3  4  2
 -1.411628506649e-03    5  3  4  3
  6.293249865599e-04    5  3  4  4
  1.502377105602e-03    5  3  5  1
 -5.684921319637e-04    5  3  5  2
  2.294661156638e-02    5  3  5  3
 -2.038272635302e-03    5  4  1  1
  3.123616404574e-04    5  4  2  1
 -7.848909222893e-04    5  4  2  2
  4.442008825173e-03    5  4  3  1
  7.722952814220e-04    5  4  3  2
  2.823187607684e-03    5  4  3  3
 -5.359481134912e-04    5  4  4  1
  5.443035218037e-03    5  4  4  2
 -3.146561462106e-04    5  4  4  3
 -3.546487622250e-08    5  4  4  4
 -7.755167003468e-05    5  4  5  1
  1.170742180930e-03    5  4  5  2
 -5.916374310656e-04    5  4  5  3
  1.771098439332e-02    5  4  5  4
  6.812944760349e-01    5  5  1  1
 -3.766589301671e-04    5  5  2  1
  6.800437209844e-01    5  5  2  2
 -3.004681040797e-03    5  5  3  1
  1.136952893891e-03    5  5  3  2
  6.992143554331e-01    5  5  3  3
  1.550902295051e-04    5  5  4  1
 -2.341494026973e-03    5  5  4  2
  1.183278762250e-03    5  5  4  3
  7.096856442538e-01    5  5  4  4
 -1.621238481670e-08    5  5  5  1
 -9.642276873640e-08    5  5  5  2
  2.022688610415e-09    5  5  5  3
 -2.766461727412e-08    5  5  5  4
  7.451075421791e-01    5  5  5  5
 -2.479499376312e-04    6  1  1  1
 -4.698757960641e-04    6  1  2  1
 -6.151551514786e-05    6  1  2  2
  4.736102778744e-06    6  1  3  1
  9.220692992945e-05    6  1  3  2
  1.134314635697e-04    6  1  3  3
 -8.171846464874e-04    6  1  4  1
  1.712466270691e-04    6  1  4  2
  2.315366648538e-03    6  1  4  3
 -2.946650605498e-05    6  1  4  4
 -2.640690703900e-03    6  1  5  1
  2.510692541053e-06    6  1  5  2
 -7.331839443468e-04    6  1  5  3
  5.997361405343e-05    6  1  5  4
  2.290815421318e-04    6  1  5  5
  6.477728621177e-03    6  1  6  1
 -4.644389867087e-04    6  2  1  1
 -6.219551380135e-05    6  2  2  1
 -1.367712855284e-03    6  2  2  2
  9.227097399698e-05    6  2  3  1
 -2.147909947998e-04    6  2  3  2
 -2.126732928391e-03    6  2  3  3
  1.712553993607e-04    6  2  4  1
 -5.190591519863e-04    6  2  4  2
  1.512214770194e-04    6  2  4  3
  2.572848133362e-03    6  2  4  4
  2.498646281813e-06    6  2  5  1
 -2.391188155536e-03    6  2  5  2
  2.796445646255e-04    6  2  5  3
 -2.771902319218e-04    6  2  5  4
  1.414095515751e-03    6  2  5  5
 -4.096815726065e-10    6  2  6  1
  6.477721410469e-03    6  2  6  2
  4.687496992666e-06    6  3  1  1
  9.223673343469e-05    6  3  2  1
 -2.148540716823e-04    6  3  2  2
  1.127631967289e-04    6  3  3  1
 -2.132529710683e-03    6  3  3  2
  4.804507163874e-04    6  3  3  3
  2.315748674173e-03    6  3  4  1
  1.512600605535e-04    6  3  4  2
  5.901531649414e-04    6  3  4  3
 -2.166024004736e-04    6  3  4  4
 -7.333452112026e-04    6  3  5  1
  2.796567185544e-04    6  3  5  2
  1.669865616838e-03    6  3  5  3
 -5.641521951558e-05    6  3  5  4
 -5.380705622775e-05    6  3  5  5
  7.068593525296e-09    6  3  6  1
  7.557425763252e-09    6  3  6  2
  6.477863292578e-03    6  3  6  3
 -8.142893195591e-04    6  4  1  1
  1.712801030088e-04    6  4  2  1
 -5.161261770069e-04    6  4  2  2
  2.315984305265e-03    6  4  3  1
  1.512489991814e-04    6  4  3  2
  5.933641754226e-04    6  4  3  3
 -3.015142957168e-05    6  4  4  1
  2.568139929676e-03    6  4  4  2
 -2.166158244126e-04    6  4  4  3
  6.390385173344e-04    6  4  4  4
  5.997470650482e-05    6  4  5  1
 -2.773012803415e-04    6  4  5  2
 -5.641316376999e-05    6  4  5  3
  9.398448416341e-04    6  4  5  4
  1.144814081943e-04    6  4  5  5
  3.041894906771e-09    6  4  6  1
  1.324215103159e-08    6  4  6  2
  5.244468012264e-09    6  4  6  3
  6.477944784961e-03    6  4  6  4
 -2.633045541916e-03    6  5  1  1
  2.508608240143e-06    6  5  2  1
 -2.383466655028e-03    6  5  2  2
 -7.333865195142e-04    6  5  3  1
  2.797148637479e-04    6  5  3  2
  1.678542847649e-03    6  5  3  3
  5.998856189052e-05    6  5  4  1
 -2.772493891403e-04    6  5  4  2
 -5.642611446164e-05    6  5  4  3
  9.482818386137e-04    6  5  4  4
  2.284492563092e-04    6  5  5  1
  1.409152333933e-03    6  5  5  2
 -5.381204136185e-05    6  5  5  3
  1.112628279258e-04    6  5  5  4
  2.433325149951e-03    6  5  5  5
  1.374904944058e-09    6  5  6  1
 -8.155930364176e-09    6  5  6  2
  1.418335612873e-09    6  5  6  3
  1.047871922711e-08    6  5  6  4
  6.477964755948e-03    6  5  6  5
  2.954727099172e-01    6  6  1  1
 -2.954116671430e-10    6  6  2  1
  2.954727048007e-01    6  6  2  2
  5.051889195704e-09    6  6  3  1
  5.388829393731e-09    6  6  3  2
  2.954728070234e-01    6  6  3  3
  2.154093997325e-09    6  6  4  1
  9.370022900189e-09    6  6  4  2
  3.741913449664e-09    6  6  4  3
  2.954728655705e-01    6  6  4  4
  9.620292239100e-10    6  6  5  1
 -5.960648913012e-09    6  6  5  2
  1.010319358390e-09    6  6  5  3
  7.382770010586e-09    6  6  5  4
  2.954728799889e-01    6  6  5  5
  1.354114225185e-07    6  6  6  1
  1.060429880071e-06    6  6  6  2
 -4.810486314422e-09    6  6  6  3
  6.222618070989e-07    6  6  6  4
  1.649462132438e-06    6  6  6  5
  2.301234172868e-01    6  6  6  6
 -3.311595932556e+00    1  1  0  0
 -8.985419113001e-10    2  1  0  0
 -3.311595952603e+00    2  2  0  0
  1.045071052713e-08    3  1  0  0
  1.471616559026e-08    3  2  0  0
 -3.311595744387e+00    3  3  0  0
  6.554126986219e-09    4  1  0  0
  2.380717412070e-08    4  2  0  0
  1.017793100276e-08    4  3  0  0
 -3.311595621864e+00    4  4  0  0
  3.168122858744e-09    5  1  0  0
 -1.189428014748e-08    5  2  0  0
  2.981835295792e-09    5  3  0  0
  2.042719560887e-08    5  4  0  0
 -3.311595606026e+00    5  5  0  0
 -2.924814841015e-06    6  1  0  0
 -2.291600164264e-05    6  2  0  0
  1.025010407677e-07    6  3  0  0
 -1.344978478755e-05    6  4  0  0
 -3.563962452046e-05    6  5  0  0
 -1.659682284959e+00    6  6  0  0
    -76.101391883676   0  0  0  0
