#INFO: **** input file is /projects/bamu3429/BENCHMARK/fresh_atoms/MRPT/vqz/atoms/Cr_1/mrpt.py ****
import json
from pyscf import gto,scf,mcscf, fci, lo, ci, cc
from pyscf.scf import ROHF, UHF,ROKS
import numpy as np
import pandas as pd

# THIS IS WERE IT STARTS ====================================

df=json.load(open("../../../trail.json"))

spins={'Sc':1, 'Ti':2, 'V':3, 'Cr':6, 'Mn':5, 'Fe':4, 'Cu':1}

nd={'Sc':(1,0), 'Ti':(2,0), 'V':(3,0), 'Cr':(5,0), 'Mn':(5,0), 'Fe':(5,1), 'Cu':(5,5)}

cas={'Sc':3, 'Ti':4, 'V':5, 'Cr':6, 'Mn':7, 'Fe':8, 'Cu':11}

datacsv={}
for nm in ['atom','charge','method','basis','pseudopotential','hf',
           'totalenergy','totalenergy-stocherr','totalenergy-syserr']:
  datacsv[nm]=[]

basis='vqz'
el='Cr'
charge=1

mol=gto.Mole()
mol.ecp={}
mol.basis={}
mol.ecp[el]=gto.basis.parse_ecp(df[el]['ecp'])
mol.basis[el]=gto.basis.parse(df[el][basis])
mol.charge=charge
if el == 'Cr' or el == 'Cu':
  mol.spin=spins[el]-charge
else:
  mol.spin=spins[el]+charge
mol.build(atom="%s 0. 0. 0."%el,verbose=4)

m=ROHF(mol)
m.level_shift=1000.0
dm=m.from_chk("../../../../HF/atoms/"+el+basis+str(charge)+".chk")
hf=m.kernel(dm)
m.analyze()

from pyscf.shciscf import shci
mc = shci.SHCISCF(m, 6, cas[el]-charge)
#mc.fcisolver.conv_tol = 1e-14
mc.fcisolver.mpiprefix="mpirun -np 28"
mc.fcisolver.num_thrds=12
mc.verbose = 4
cas=mc.kernel()[0]
 
from pyscf.icmpspt import icmpspt
pt=icmpspt.icmpspt(mc,rdmM=500, PTM=1000,\
                          pttype="MRLCC",\
                          third_order=True,\
                          fully_ic=True,\
                          do_dm4=True)

datacsv['atom'].append(el)
datacsv['charge'].append(charge)
datacsv['method'].append('MRPT')
datacsv['basis'].append(basis)
datacsv['pseudopotential'].append('trail')
datacsv['hf'].append(hf)
datacsv['totalenergy'].append(cas+pt)
datacsv['totalenergy-stocherr'].append(0.0)
datacsv['totalenergy-syserr'].append(0.0)
pd.DataFrame(datacsv).to_csv(el+".csv",index=False)

#INFO: ******************** input file end ********************


System: ('Linux', 'bnode0308.rc.int.colorado.edu', '3.10.0-514.41.1.el7.x86_64', '#1 SMP Wed Jan 17 10:26:16 EST 2018', 'x86_64', 'x86_64')  Threads 1
Python 2.7.11 (default, Mar 22 2016, 01:42:54) 
[GCC Intel(R) C++ gcc 4.8 mode]
numpy 1.11.1  scipy 0.17.1
Date: Mon Mar 26 15:44:28 2018
PySCF version 1.4b
PySCF path  /projects/bamu3429/softwares/pyscf/pyscf
GIT ORIG_HEAD a007ed0a2fbe03d40db097068519a89db937d194
GIT HEAD      ref: refs/heads/dev
GIT dev branch  c61da64dc121f43448ee07e62e4d3a4eb5ddcda8

[INPUT] VERBOSE 4
[INPUT] num atoms = 1
[INPUT] num electrons = 13
[INPUT] charge = 1
[INPUT] spin (= nelec alpha-beta = 2S) = 5
[INPUT] symmetry False subgroup None
[INPUT]  1 Cr     0.000000000000   0.000000000000   0.000000000000 AA    0.000000000000   0.000000000000   0.000000000000 Bohr
[INPUT] ---------------- BASIS SET ---------------- 
[INPUT] l, kappa, [nprim/nctr], expnt,             c_1 c_2 ...
[INPUT] Cr
[INPUT] 0    0    [12   /1   ]  41.45590127       0.010332
                                22.20089455       -0.091393
                                12.37022616       0.412444
                                7.15443966        -0.722409
                                3.63012556        0.039693
                                1.88942247        0.321055
                                1.04381355        0.652182
                                0.47307333        0.264443
                                0.22628807        -0.008646
                                0.10750747        0.012188
                                0.05101028        -0.00242
                                0.0242372         0.001733
[INPUT] 0    0    [12   /1   ]  41.45590127       -0.001971
                                22.20089455       0.019152
                                12.37022616       -0.094562
                                7.15443966        0.178991
                                3.63012556        -0.015716
                                1.88942247        -0.084882
                                1.04381355        -0.243744
                                0.47307333        -0.214624
                                0.22628807        0.055092
                                0.10750747        0.415903
                                0.05101028        0.543473
                                0.0242372         0.170131
[INPUT] 0    0    [12   /1   ]  41.45590127       -0.006227
                                22.20089455       0.071299
                                12.37022616       -0.410892
                                7.15443966        0.917584
                                3.63012556        -0.221951
                                1.88942247        -1.345636
                                1.04381355        -0.06992
                                0.47307333        0.755692
                                0.22628807        0.739114
                                0.10750747        0.112359
                                0.05101028        -0.547421
                                0.0242372         -0.284669
[INPUT] 0    0    [12   /1   ]  41.45590127       -0.006182
                                22.20089455       0.080693
                                12.37022616       -0.526764
                                7.15443966        1.364382
                                3.63012556        -0.812528
                                1.88942247        -2.239916
                                1.04381355        1.755013
                                0.47307333        1.667635
                                0.22628807        -1.426447
                                0.10750747        -1.028337
                                0.05101028        0.585035
                                0.0242372         0.607504
[INPUT] 0    0    [12   /1   ]  41.45590127       -2.6e-05
                                22.20089455       -0.072001
                                12.37022616       0.777417
                                7.15443966        -2.790553
                                3.63012556        4.512611
                                1.88942247        -0.555137
                                1.04381355        -4.087256
                                0.47307333        3.038568
                                0.22628807        0.867446
                                0.10750747        -2.097137
                                0.05101028        -0.014926
                                0.0242372         0.887447
[INPUT] 0    0    [1    /1   ]  0.0242372            1
[INPUT] 0    0    [1    /1   ]  0.01151614           1
[INPUT] 1    0    [12   /1   ]  28.88080716       -0.002973
                                13.19380569       0.044202
                                7.25722596        -0.232476
                                4.84342676        0.167654
                                2.76949909        0.179744
                                1.50719356        0.46058
                                0.72516508        0.338218
                                0.36385743        0.097984
                                0.16204617        0.012145
                                0.07447705        -0.000948
                                0.03422994        0.000821
                                0.01573221        -0.00022
[INPUT] 1    0    [12   /1   ]  28.88080716       0.000536
                                13.19380569       -0.009363
                                7.25722596        0.054752
                                4.84342676        -0.042977
                                2.76949909        -0.049244
                                1.50719356        -0.128712
                                0.72516508        -0.11682
                                0.36385743        0.044517
                                0.16204617        0.322192
                                0.07447705        0.482878
                                0.03422994        0.275764
                                0.01573221        0.025472
[INPUT] 1    0    [12   /1   ]  28.88080716       -0.000601
                                13.19380569       0.036419
                                7.25722596        -0.319649
                                4.84342676        0.265625
                                2.76949909        0.800568
                                1.50719356        0.1134
                                0.72516508        -0.940194
                                0.36385743        -0.356195
                                0.16204617        0.582848
                                0.07447705        0.421307
                                0.03422994        0.024352
                                0.01573221        0.004528
[INPUT] 1    0    [12   /1   ]  28.88080716       0.001606
                                13.19380569       0.051311
                                7.25722596        -0.743081
                                4.84342676        1.253251
                                2.76949909        1.03744
                                1.50719356        -1.776327
                                0.72516508        -0.552415
                                0.36385743        1.568643
                                0.16204617        -0.082341
                                0.07447705        -0.666944
                                0.03422994        -0.027493
                                0.01573221        -0.01175
[INPUT] 1    0    [12   /1   ]  28.88080716       0.013614
                                13.19380569       -0.041885
                                7.25722596        -1.136499
                                4.84342676        3.740841
                                2.76949909        -2.3618
                                1.50719356        -1.491548
                                0.72516508        2.916436
                                0.36385743        -1.186695
                                0.16204617        -1.003943
                                0.07447705        1.033584
                                0.03422994        -0.005965
                                0.01573221        0.033567
[INPUT] 1    0    [1    /1   ]  0.01573221           1
[INPUT] 1    0    [1    /1   ]  0.00723058           1
[INPUT] 2    0    [10   /1   ]  46.50908408       0.000358
                                21.60133229       -0.010512
                                11.03652449       0.11118
                                4.54288797        0.164184
                                2.18180243        0.267436
                                1.04009058        0.310836
                                0.48262909        0.28353
                                0.21570372        0.173079
                                0.10059873        0.057279
                                0.04653409        0.00937
[INPUT] 2    0    [10   /1   ]  46.50908408       0.000742
                                21.60133229       0.005602
                                11.03652449       -0.103642
                                4.54288797        -0.218406
                                2.18180243        -0.413398
                                1.04009058        -0.079422
                                0.48262909        0.294538
                                0.21570372        0.416612
                                0.10059873        0.235487
                                0.04653409        0.050239
[INPUT] 2    0    [10   /1   ]  46.50908408       -0.00365
                                21.60133229       0.008162
                                11.03652449       0.079193
                                4.54288797        0.433939
                                2.18180243        0.349419
                                1.04009058        -0.696856
                                0.48262909        -0.418157
                                0.21570372        0.309031
                                0.10059873        0.451053
                                0.04653409        0.102595
[INPUT] 2    0    [10   /1   ]  46.50908408       2e-06
                                21.60133229       -0.017312
                                11.03652449       0.289925
                                4.54288797        0.891377
                                2.18180243        -1.014212
                                1.04009058        -0.495442
                                0.48262909        0.952535
                                0.21570372        0.034125
                                0.10059873        -0.457461
                                0.04653409        -0.126771
[INPUT] 2    0    [1    /1   ]  0.04653409           1
[INPUT] 2    0    [1    /1   ]  0.02152533           1
[INPUT] 3    0    [1    /1   ]  3.786904             1
[INPUT] 3    0    [1    /1   ]  1.303251             1
[INPUT] 3    0    [1    /1   ]  0.448509             1
[INPUT] 3    0    [1    /1   ]  0.1543527            1
[INPUT] 4    0    [1    /1   ]  3.665821             1
[INPUT] 4    0    [1    /1   ]  1.288052             1
[INPUT] 4    0    [1    /1   ]  0.45258017           1
[INPUT] 5    0    [1    /1   ]  3.056986             1
[INPUT] 5    0    [1    /1   ]  1.07412687           1
nuclear repulsion = 0
number of shells = 29
number of NR pGTOs = 535
number of NR cGTOs = 135
basis = {'Cr': [[0, [41.45590127, 0.010332], [22.20089455, -0.091393], [12.37022616, 0.412444], [7.15443966, -0.722409], [3.63012556, 0.039693], [1.88942247, 0.321055], [1.04381355, 0.652182], [0.47307333, 0.264443], [0.22628807, -0.008646], [0.10750747, 0.012188], [0.05101028, -0.00242], [0.0242372, 0.001733]], [0, [41.45590127, -0.001971], [22.20089455, 0.019152], [12.37022616, -0.094562], [7.15443966, 0.178991], [3.63012556, -0.015716], [1.88942247, -0.084882], [1.04381355, -0.243744], [0.47307333, -0.214624], [0.22628807, 0.055092], [0.10750747, 0.415903], [0.05101028, 0.543473], [0.0242372, 0.170131]], [0, [41.45590127, -0.006227], [22.20089455, 0.071299], [12.37022616, -0.410892], [7.15443966, 0.917584], [3.63012556, -0.221951], [1.88942247, -1.345636], [1.04381355, -0.06992], [0.47307333, 0.755692], [0.22628807, 0.739114], [0.10750747, 0.112359], [0.05101028, -0.547421], [0.0242372, -0.284669]], [0, [41.45590127, -0.006182], [22.20089455, 0.080693], [12.37022616, -0.526764], [7.15443966, 1.364382], [3.63012556, -0.812528], [1.88942247, -2.239916], [1.04381355, 1.755013], [0.47307333, 1.667635], [0.22628807, -1.426447], [0.10750747, -1.028337], [0.05101028, 0.585035], [0.0242372, 0.607504]], [0, [41.45590127, -2.6e-05], [22.20089455, -0.072001], [12.37022616, 0.777417], [7.15443966, -2.790553], [3.63012556, 4.512611], [1.88942247, -0.555137], [1.04381355, -4.087256], [0.47307333, 3.038568], [0.22628807, 0.867446], [0.10750747, -2.097137], [0.05101028, -0.014926], [0.0242372, 0.887447]], [0, [0.0242372, 1.0]], [0, [0.01151614, 1.0]], [1, [28.88080716, -0.002973], [13.19380569, 0.044202], [7.25722596, -0.232476], [4.84342676, 0.167654], [2.76949909, 0.179744], [1.50719356, 0.46058], [0.72516508, 0.338218], [0.36385743, 0.097984], [0.16204617, 0.012145], [0.07447705, -0.000948], [0.03422994, 0.000821], [0.01573221, -0.00022]], [1, [28.88080716, 0.000536], [13.19380569, -0.009363], [7.25722596, 0.054752], [4.84342676, -0.042977], [2.76949909, -0.049244], [1.50719356, -0.128712], [0.72516508, -0.11682], [0.36385743, 0.044517], [0.16204617, 0.322192], [0.07447705, 0.482878], [0.03422994, 0.275764], [0.01573221, 0.025472]], [1, [28.88080716, -0.000601], [13.19380569, 0.036419], [7.25722596, -0.319649], [4.84342676, 0.265625], [2.76949909, 0.800568], [1.50719356, 0.1134], [0.72516508, -0.940194], [0.36385743, -0.356195], [0.16204617, 0.582848], [0.07447705, 0.421307], [0.03422994, 0.024352], [0.01573221, 0.004528]], [1, [28.88080716, 0.001606], [13.19380569, 0.051311], [7.25722596, -0.743081], [4.84342676, 1.253251], [2.76949909, 1.03744], [1.50719356, -1.776327], [0.72516508, -0.552415], [0.36385743, 1.568643], [0.16204617, -0.082341], [0.07447705, -0.666944], [0.03422994, -0.027493], [0.01573221, -0.01175]], [1, [28.88080716, 0.013614], [13.19380569, -0.041885], [7.25722596, -1.136499], [4.84342676, 3.740841], [2.76949909, -2.3618], [1.50719356, -1.491548], [0.72516508, 2.916436], [0.36385743, -1.186695], [0.16204617, -1.003943], [0.07447705, 1.033584], [0.03422994, -0.005965], [0.01573221, 0.033567]], [1, [0.01573221, 1.0]], [1, [0.00723058, 1.0]], [2, [46.50908408, 0.000358], [21.60133229, -0.010512], [11.03652449, 0.11118], [4.54288797, 0.164184], [2.18180243, 0.267436], [1.04009058, 0.310836], [0.48262909, 0.28353], [0.21570372, 0.173079], [0.10059873, 0.057279], [0.04653409, 0.00937]], [2, [46.50908408, 0.000742], [21.60133229, 0.005602], [11.03652449, -0.103642], [4.54288797, -0.218406], [2.18180243, -0.413398], [1.04009058, -0.079422], [0.48262909, 0.294538], [0.21570372, 0.416612], [0.10059873, 0.235487], [0.04653409, 0.050239]], [2, [46.50908408, -0.00365], [21.60133229, 0.008162], [11.03652449, 0.079193], [4.54288797, 0.433939], [2.18180243, 0.349419], [1.04009058, -0.696856], [0.48262909, -0.418157], [0.21570372, 0.309031], [0.10059873, 0.451053], [0.04653409, 0.102595]], [2, [46.50908408, 2e-06], [21.60133229, -0.017312], [11.03652449, 0.289925], [4.54288797, 0.891377], [2.18180243, -1.014212], [1.04009058, -0.495442], [0.48262909, 0.952535], [0.21570372, 0.034125], [0.10059873, -0.457461], [0.04653409, -0.126771]], [2, [0.04653409, 1.0]], [2, [0.02152533, 1.0]], [3, [3.786904, 1.0]], [3, [1.303251, 1.0]], [3, [0.448509, 1.0]], [3, [0.1543527, 1.0]], [4, [3.665821, 1.0]], [4, [1.288052, 1.0]], [4, [0.45258017, 1.0]], [5, [3.056986, 1.0]], [5, [1.07412687, 1.0]]]}
ecp = {'Cr': [10, [[-1, [[], [[13.07675203, 14.0]], [[15.15807582, 1258.1555038], [4.62785686, -98.60998187], [15.41136599, -6552.46055066], [15.38690637, 5353.09061557]], [[5.24897308, 183.07452839]]]], [0, [[], [], [[9.77680844, -91901.2080948], [9.95980111, 96320.14803227], [8.62275214, 3928.3135917], [12.29288144, -10977.62459544], [18.41316592, -1741.60409682], [16.38541961, 4413.26493033]], []]], [1, [[], [], [[12.00099996, -22156.17142851], [11.46524435, 21551.07876111], [16.23852226, 3703.78784703], [18.43861108, -1424.18632323], [8.88877941, -1964.93568469], [7.52644784, 317.50498882]], []]], [2, [[], [], [[11.1066837, -5435.29666496], [8.49801115, 7350.69608766], [12.28065533, 2443.80334995], [8.1885354, -5401.76770998], [14.34306836, 3881.23075486], [15.24784181, -2855.87137953]], []]]]]}
CPU time:         0.61


******** <class 'pyscf.scf.rohf.ROHF'> flags ********
method = ROHF
initial guess = minao
damping factor = 0
level shift factor = 1000.0
DIIS = <class 'pyscf.scf.diis.CDIIS'>
DIIS start cycle = 1
DIIS space = 8
SCF tol = 1e-09
SCF gradient tol = None
max. SCF cycles = 50
direct_scf = True
direct_scf_tol = 1e-13
chkfile to save SCF result = /projects/bamu3429/BENCHMARK/fresh_atoms/MRPT/vqz/atoms/Cr_1/tmpOJhjDi
max_memory 4000 MB (current use 82 MB)
num. doubly occ = 4  num. singly occ = 5
Set gradient conv threshold to 3.16228e-05
init E= -85.9965162169181
  HOMO = 499.778647712931  LUMO = 999.801486926843
cycle= 1 E= -85.9965162169182  delta_E= -1.28e-13  |g|= 8.44e-06  |ddm|= 2.91e-08
  HOMO = -0.221352287192182  LUMO = -0.198513073182609
Extra cycle  E= -85.9965162168245  delta_E= 9.38e-11  |g|= 6.73e-06  |ddm|= 5.15e-05
converged SCF energy = -85.9965162168245
**** MO energy ****
                Roothaan           | alpha              | beta
MO #1   energy= -3.67777386993231  | -3.86416804337794  | -3.49137969648668  occ= 2
MO #2   energy= -2.37739366959459  | -2.60622948414117  | -2.14855785504802  occ= 2
MO #3   energy= -2.37739360153454  | -2.60622932263402  | -2.14855788043506  occ= 2
MO #4   energy= -2.37739348423967  | -2.60622904781216  | -2.14855792066718  occ= 2
MO #5   energy= -0.221352319895445 | -0.646454356571265 | 0.203749831826241  occ= 1
MO #6   energy= -0.221352318393542 | -0.646454373899373 | 0.203749835395919  occ= 1
MO #7   energy= -0.221352301494442 | -0.64645431899848  | 0.203749840390441  occ= 1
MO #8   energy= -0.221352293620198 | -0.646454281291914 | 0.203749841555613  occ= 1
MO #9   energy= -0.221352287192182 | -0.646454296310404 | 0.203749848022735  occ= 1
MO #10  energy= -0.198513073182609 | -0.214707704136646 | -0.182318442504343 occ= 0
MO #11  energy= -0.111684894255882 | -0.117740402524213 | -0.105629385987579 occ= 0
MO #12  energy= -0.111684864721748 | -0.1177404289721   | -0.105629300471519 occ= 0
MO #13  energy= -0.111684813911876 | -0.117740474365536 | -0.105629153458258 occ= 0
MO #14  energy= -0.0720310272027342 | -0.0747398739258189 | -0.069322180481759 occ= 0
MO #15  energy= -0.0503281604622122 | -0.0520524405989121 | -0.0486038803255104 occ= 0
MO #16  energy= -0.0503281531609735 | -0.0520524476422934 | -0.0486038586796647 occ= 0
MO #17  energy= -0.0503281406139447 | -0.0520524597674993 | -0.0486038214603851 occ= 0
MO #18  energy= -0.0474483860253755 | -0.0485326711290207 | -0.0463642246873753 occ= 0
MO #19  energy= -0.0474483837103622 | -0.0485326692128298 | -0.0463642236831944 occ= 0
MO #20  energy= -0.0474483566408875 | -0.0485326430257225 | -0.0463641966215644 occ= 0
MO #21  energy= -0.0474483406199029 | -0.0485326276592635 | -0.0463641812027922 occ= 0
MO #22  energy= -0.0474483354549914 | -0.0485326224468816 | -0.0463641749117059 occ= 0
MO #23  energy= 0.011274867881293  | 0.00248358608478957 | 0.0200661496777848 occ= 0
MO #24  energy= 0.0112748906505644 | 0.00248354088408582 | 0.0200662404170136 occ= 0
MO #25  energy= 0.0112749297833989 | 0.00248346308754386 | 0.0200663964792464 occ= 0
MO #26  energy= 0.0520748656762717 | 0.0463589380066595 | 0.0577905621151276 occ= 0
MO #27  energy= 0.0520748722927613 | 0.0463589422156384 | 0.0577905656213146 occ= 0
MO #28  energy= 0.0520749361419759 | 0.0463589945302908 | 0.0577906384799092 occ= 0
MO #29  energy= 0.0520749743888775 | 0.0463590254686548 | 0.0577906804974892 occ= 0
MO #30  energy= 0.0520749872386429 | 0.0463590357242271 | 0.0577906940251774 occ= 0
MO #31  energy= 0.0687024170789924 | 0.0587224487686908 | 0.0786823853861638 occ= 0
MO #32  energy= 0.374983778534123  | 0.367195244833395  | 0.382772312234858  occ= 0
MO #33  energy= 0.37498377948398   | 0.367195245433033  | 0.382772313534925  occ= 0
MO #34  energy= 0.374983916236966  | 0.367195345483378  | 0.382772486990556  occ= 0
MO #35  energy= 0.374983936199512  | 0.367195359459768  | 0.382772512939262  occ= 0
MO #36  energy= 0.37498399074668   | 0.367195399724841  | 0.38277258176852   occ= 0
MO #37  energy= 0.374984073114     | 0.367195459751242  | 0.382772686476761  occ= 0
MO #38  energy= 0.374984080002862  | 0.367195464865988  | 0.382772695139734  occ= 0
MO #39  energy= 0.467346208366862  | 0.448731504380652  | 0.485960912354488  occ= 0
MO #40  energy= 0.56972707220405   | 0.523082633234711  | 0.616371825736809  occ= 0
MO #41  energy= 0.569727092774165  | 0.523082644909211  | 0.616371844964902  occ= 0
MO #42  energy= 0.569727270745825  | 0.523082757809761  | 0.616372082323388  occ= 0
MO #43  energy= 0.56972737697598   | 0.523082825023426  | 0.616372222532706  occ= 0
MO #44  energy= 0.569727413524589  | 0.523082847637075  | 0.616372268151364  occ= 0
MO #45  energy= 0.921209403455969  | 0.878593193715113  | 0.963825613196821  occ= 0
MO #46  energy= 0.921209509290594  | 0.878593184300367  | 0.96382583428082   occ= 0
MO #47  energy= 0.921209691562759  | 0.878593167971158  | 0.963826215154368  occ= 0
MO #48  energy= 1.55519683679335   | 1.50497792483941   | 1.6054157487473    occ= 0
MO #49  energy= 1.55519683831597   | 1.50497792558229   | 1.60541575104966   occ= 0
MO #50  energy= 1.55519705501278   | 1.50497804552702   | 1.60541606449855   occ= 0
MO #51  energy= 1.55519708676271   | 1.50497806247566   | 1.60541611104976   occ= 0
MO #52  energy= 1.55519717311051   | 1.50497811059454   | 1.60541623562646   occ= 0
MO #53  energy= 1.55519730366587   | 1.50497818274416   | 1.60541642458758   occ= 0
MO #54  energy= 1.555197314561     | 1.50497818882968   | 1.60541644029233   occ= 0
MO #55  energy= 1.90164164033033   | 1.88351199544544   | 1.91977128521521   occ= 0
MO #56  energy= 1.901641640527     | 1.88351199558329   | 1.91977128547071   occ= 0
MO #57  energy= 1.90164186862152   | 1.88351216682555   | 1.9197715704175    occ= 0
MO #58  energy= 1.90164187579721   | 1.88351217205234   | 1.91977157954206   occ= 0
MO #59  energy= 1.90164200644116   | 1.88351227042829   | 1.91977174245402   occ= 0
MO #60  energy= 1.90164206289145   | 1.88351231240841   | 1.9197718133745    occ= 0
MO #61  energy= 1.90164210230438   | 1.88351234219871   | 1.91977186241006   occ= 0
MO #62  energy= 1.90164225051107   | 1.88351245351284   | 1.91977204750929   occ= 0
MO #63  energy= 1.90164225351226   | 1.88351245578045   | 1.91977205124407   occ= 0
MO #64  energy= 2.35435975588739   | 2.30757853587599   | 2.40114097589908   occ= 0
MO #65  energy= 2.84463507537881   | 2.76311003612584   | 2.92616005776745   occ= 0
MO #66  energy= 2.8446350862329    | 2.7631100487017    | 2.92616006558025   occ= 0
MO #67  energy= 2.84463519663283   | 2.76311015499337   | 2.92616017942282   occ= 0
MO #68  energy= 2.84463526176101   | 2.76311021830556   | 2.9261602457209    occ= 0
MO #69  energy= 2.84463528381577   | 2.76311023979518   | 2.92616026809717   occ= 0
MO #70  energy= 3.95205362354685   | 3.89937860478041   | 4.0047286423133    occ= 0
MO #71  energy= 3.95205373806424   | 3.89937873524989   | 4.00472874087858   occ= 0
MO #72  energy= 3.95205393588803   | 3.89937895987647   | 4.00472891189958   occ= 0
MO #73  energy= 4.48543042228384   | 4.38554641288089   | 4.58531443168679   occ= 0
MO #74  energy= 4.4854304233059    | 4.38554641419729   | 4.5853144324145    occ= 0
MO #75  energy= 4.48543054928667   | 4.38554654879836   | 4.58531454977498   occ= 0
MO #76  energy= 4.48543056859521   | 4.38554657089779   | 4.58531456629262   occ= 0
MO #77  energy= 4.48543061834882   | 4.38554662329839   | 4.58531461339925   occ= 0
MO #78  energy= 4.48543069438046   | 4.38554670514547   | 4.58531468361546   occ= 0
MO #79  energy= 4.4854307006464    | 4.3855467117147    | 4.58531468957811   occ= 0
MO #80  energy= 5.89882477937777   | 5.87107160266206   | 5.9265779560935    occ= 0
MO #81  energy= 5.89882477940048   | 5.87107160268036   | 5.9265779561206    occ= 0
MO #82  energy= 5.89882499511455   | 5.87107177996344   | 5.92657821026568   occ= 0
MO #83  energy= 5.89882499632879   | 5.87107178095112   | 5.92657821170646   occ= 0
MO #84  energy= 5.89882514972198   | 5.87107190708261   | 5.92657839236136   occ= 0
MO #85  energy= 5.89882516765627   | 5.87107192175705   | 5.92657841355549   occ= 0
MO #86  energy= 5.89882524090124   | 5.87107198203152   | 5.92657849977095   occ= 0
MO #87  energy= 5.89882531727696   | 5.87107204472176   | 5.92657858983215   occ= 0
MO #88  energy= 5.8988253325987    | 5.87107205734181   | 5.92657860785559   occ= 0
MO #89  energy= 5.89882548281037   | 5.87107218086132   | 5.92657878475942   occ= 0
MO #90  energy= 5.89882548356905   | 5.87107218148571   | 5.9265787856524    occ= 0
MO #91  energy= 6.14808451771491   | 6.09455520813565   | 6.20161382729418   occ= 0
MO #92  energy= 6.14808451785774   | 6.09455520826097   | 6.20161382745452   occ= 0
MO #93  energy= 6.14808468635234   | 6.09455534879166   | 6.201614023913     occ= 0
MO #94  energy= 6.14808469160706   | 6.09455535327947   | 6.20161402993463   occ= 0
MO #95  energy= 6.14808478820452   | 6.0945554336451    | 6.20161414276393   occ= 0
MO #96  energy= 6.14808482975813   | 6.09455546858293   | 6.20161419093333   occ= 0
MO #97  energy= 6.14808485894306   | 6.09455549278227   | 6.20161422510386   occ= 0
MO #98  energy= 6.14808496831792   | 6.09455558403915   | 6.20161435259668   occ= 0
MO #99  energy= 6.14808497054293   | 6.09455558588271   | 6.20161435520314   occ= 0
MO #100 energy= 8.37167011246079   | 8.30789638975141   | 8.4354438365213    occ= 0
MO #101 energy= 8.37167011920267   | 8.3078963890696    | 8.43544385068098   occ= 0
MO #102 energy= 8.37167013740715   | 8.30789638002079   | 8.43544389613445   occ= 0
MO #103 energy= 8.37167016886426   | 8.307896367163     | 8.43544397189333   occ= 0
MO #104 energy= 8.3716701697857    | 8.30789636284737   | 8.43544397805547   occ= 0
MO #105 energy= 9.02041859053078   | 8.9647839082248    | 9.07605327283676   occ= 0
MO #106 energy= 12.262987302619    | 12.177977672882    | 12.347996932356    occ= 0
MO #107 energy= 12.262987306471    | 12.1779776733346   | 12.3479969396074   occ= 0
MO #108 energy= 12.2629873529635   | 12.1779776758257   | 12.3479970301013   occ= 0
MO #109 energy= 12.262987383596    | 12.177977678841    | 12.3479970883509   occ= 0
MO #110 energy= 12.2629873947161   | 12.1779776775173   | 12.3479971119149   occ= 0
MO #111 energy= 12.2629874714285   | 12.1779776823498   | 12.3479972605071   occ= 0
MO #112 energy= 12.262987471938    | 12.1779776820612   | 12.3479972618147   occ= 0
MO #113 energy= 12.6374004932318   | 12.5818261774847   | 12.6929748089788   occ= 0
MO #114 energy= 12.6374005504221   | 12.581826120876    | 12.6929749799682   occ= 0
MO #115 energy= 12.6374005844127   | 12.5818260882021   | 12.6929750806234   occ= 0
MO #116 energy= 16.9326403213935   | 16.8677859288826   | 16.9974947139045   occ= 0
MO #117 energy= 16.9326403223843   | 16.8677859293017   | 16.9974947154669   occ= 0
MO #118 energy= 16.9326403727449   | 16.8677859501331   | 16.9974947953568   occ= 0
MO #119 energy= 16.9326403858054   | 16.8677859557519   | 16.9974948158591   occ= 0
MO #120 energy= 16.9326404054848   | 16.8677859632754   | 16.9974948476942   occ= 0
MO #121 energy= 16.9326404492998   | 16.8677859816676   | 16.997494916932    occ= 0
MO #122 energy= 16.9326404519334   | 16.8677859825123   | 16.9974949213544   occ= 0
MO #123 energy= 16.9326405290819   | 16.8677860141758   | 16.9974950439879   occ= 0
MO #124 energy= 16.9326405291604   | 16.8677860141927   | 16.997495044128    occ= 0
MO #125 energy= 17.8565670541383   | 17.8090227952844   | 17.9041113129921   occ= 0
MO #126 energy= 17.8565670541728   | 17.8090227952769   | 17.9041113130687   occ= 0
MO #127 energy= 17.856567059667    | 17.80902278918     | 17.904111330154    occ= 0
MO #128 energy= 17.8565670601758   | 17.8090227887325   | 17.9041113316192   occ= 0
MO #129 energy= 17.856567063599    | 17.8090227856827   | 17.9041113415153   occ= 0
MO #130 energy= 17.8565670660629   | 17.8090227830328   | 17.904111349093    occ= 0
MO #131 energy= 17.8565670671536   | 17.8090227823613   | 17.9041113519459   occ= 0
MO #132 energy= 17.8565670726089   | 17.8090227763101   | 17.9041113689077   occ= 0
MO #133 energy= 17.8565670727338   | 17.8090227762988   | 17.9041113691687   occ= 0
MO #134 energy= 17.856567080842    | 17.8090227675615   | 17.9041113941226   occ= 0
MO #135 energy= 17.8565670808464   | 17.8090227675637   | 17.9041113941291   occ= 0
 ** Mulliken pop on meta-lowdin orthogonal AOs  **
 ** Mulliken pop  **
pop of  0Cr 3s        1.99990
pop of  0Cr 4s        0.00000
pop of  0Cr 5s        0.00009
pop of  0Cr 6s        0.00000
pop of  0Cr 7s        0.00000
pop of  0Cr 8s        0.00000
pop of  0Cr 9s        0.00000
pop of  0Cr 3px       1.99985
pop of  0Cr 3py       1.99985
pop of  0Cr 3pz       1.99985
pop of  0Cr 4px       0.00007
pop of  0Cr 4py       0.00007
pop of  0Cr 4pz       0.00007
pop of  0Cr 5px       0.00006
pop of  0Cr 5py       0.00006
pop of  0Cr 5pz       0.00006
pop of  0Cr 6px       0.00001
pop of  0Cr 6py       0.00001
pop of  0Cr 6pz       0.00001
pop of  0Cr 7px       0.00000
pop of  0Cr 7py       0.00000
pop of  0Cr 7pz       0.00000
pop of  0Cr 8px       0.00000
pop of  0Cr 8py       0.00000
pop of  0Cr 8pz       0.00000
pop of  0Cr 9px       0.00000
pop of  0Cr 9py       0.00000
pop of  0Cr 9pz       0.00000
pop of  0Cr 3dxy      0.99964
pop of  0Cr 3dyz      0.99964
pop of  0Cr 3dz^2     0.99964
pop of  0Cr 3dxz      0.99964
pop of  0Cr 3dx2-y2    0.99964
pop of  0Cr 4dxy      0.00026
pop of  0Cr 4dyz      0.00026
pop of  0Cr 4dz^2     0.00026
pop of  0Cr 4dxz      0.00026
pop of  0Cr 4dx2-y2    0.00026
pop of  0Cr 5dxy      0.00002
pop of  0Cr 5dyz      0.00002
pop of  0Cr 5dz^2     0.00002
pop of  0Cr 5dxz      0.00002
pop of  0Cr 5dx2-y2    0.00002
pop of  0Cr 6dxy      0.00001
pop of  0Cr 6dyz      0.00001
pop of  0Cr 6dz^2     0.00001
pop of  0Cr 6dxz      0.00001
pop of  0Cr 6dx2-y2    0.00001
pop of  0Cr 7dxy      0.00006
pop of  0Cr 7dyz      0.00006
pop of  0Cr 7dz^2     0.00006
pop of  0Cr 7dxz      0.00006
pop of  0Cr 7dx2-y2    0.00006
pop of  0Cr 8dxy      0.00001
pop of  0Cr 8dyz      0.00001
pop of  0Cr 8dz^2     0.00001
pop of  0Cr 8dxz      0.00001
pop of  0Cr 8dx2-y2    0.00001
pop of  0Cr 4fy^3     0.00000
pop of  0Cr 4fxyz     0.00000
pop of  0Cr 4fyz^2    0.00000
pop of  0Cr 4fz^3     0.00000
pop of  0Cr 4fxz^2    0.00000
pop of  0Cr 4fzx^2    0.00000
pop of  0Cr 4fx^3     0.00000
pop of  0Cr 5fy^3     0.00000
pop of  0Cr 5fxyz     0.00000
pop of  0Cr 5fyz^2    0.00000
pop of  0Cr 5fz^3     0.00000
pop of  0Cr 5fxz^2    0.00000
pop of  0Cr 5fzx^2    0.00000
pop of  0Cr 5fx^3     0.00000
pop of  0Cr 6fy^3     0.00000
pop of  0Cr 6fxyz     0.00000
pop of  0Cr 6fyz^2    0.00000
pop of  0Cr 6fz^3     0.00000
pop of  0Cr 6fxz^2    0.00000
pop of  0Cr 6fzx^2    0.00000
pop of  0Cr 6fx^3     0.00000
pop of  0Cr 7fy^3     0.00000
pop of  0Cr 7fxyz     0.00000
pop of  0Cr 7fyz^2    0.00000
pop of  0Cr 7fz^3     0.00000
pop of  0Cr 7fxz^2    0.00000
pop of  0Cr 7fzx^2    0.00000
pop of  0Cr 7fx^3     0.00000
pop of  0Cr 5g-4      0.00000
pop of  0Cr 5g-3      0.00000
pop of  0Cr 5g-2      0.00000
pop of  0Cr 5g-1      0.00000
pop of  0Cr 5g 0      0.00000
pop of  0Cr 5g 1      0.00000
pop of  0Cr 5g 2      0.00000
pop of  0Cr 5g 3      0.00000
pop of  0Cr 5g 4      0.00000
pop of  0Cr 6g-4      0.00000
pop of  0Cr 6g-3      0.00000
pop of  0Cr 6g-2      0.00000
pop of  0Cr 6g-1      0.00000
pop of  0Cr 6g 0      0.00000
pop of  0Cr 6g 1      0.00000
pop of  0Cr 6g 2      0.00000
pop of  0Cr 6g 3      0.00000
pop of  0Cr 6g 4      0.00000
pop of  0Cr 7g-4      0.00000
pop of  0Cr 7g-3      0.00000
pop of  0Cr 7g-2      0.00000
pop of  0Cr 7g-1      0.00000
pop of  0Cr 7g 0      0.00000
pop of  0Cr 7g 1      0.00000
pop of  0Cr 7g 2      0.00000
pop of  0Cr 7g 3      0.00000
pop of  0Cr 7g 4      0.00000
pop of  0Cr 6h-5      0.00000
pop of  0Cr 6h-4      0.00000
pop of  0Cr 6h-3      0.00000
pop of  0Cr 6h-2      0.00000
pop of  0Cr 6h-1      0.00000
pop of  0Cr 6h 0      0.00000
pop of  0Cr 6h 1      0.00000
pop of  0Cr 6h 2      0.00000
pop of  0Cr 6h 3      0.00000
pop of  0Cr 6h 4      0.00000
pop of  0Cr 6h 5      0.00000
pop of  0Cr 7h-5      0.00000
pop of  0Cr 7h-4      0.00000
pop of  0Cr 7h-3      0.00000
pop of  0Cr 7h-2      0.00000
pop of  0Cr 7h-1      0.00000
pop of  0Cr 7h 0      0.00000
pop of  0Cr 7h 1      0.00000
pop of  0Cr 7h 2      0.00000
pop of  0Cr 7h 3      0.00000
pop of  0Cr 7h 4      0.00000
pop of  0Cr 7h 5      0.00000
 ** Mulliken atomic charges  **
charge of  0Cr =      1.00000

******** <class 'pyscf.mcscf.mc1step.CASSCF'> flags ********
CAS (5e+0e, 6o), ncore = 4, nvir = 125
max_cycle_macro = 50
max_cycle_micro = 4
conv_tol = 1e-07
conv_tol_grad = None
orbital rotation max_stepsize = 0.02
augmented hessian ah_max_cycle = 30
augmented hessian ah_conv_tol = 1e-12
augmented hessian ah_linear dependence = 1e-14
augmented hessian ah_level shift = 0
augmented hessian ah_start_tol = 2.5
augmented hessian ah_start_cycle = 3
augmented hessian ah_grad_trust_region = 3
kf_trust_region = 3
kf_interval = 4
ci_response_space = 4
ci_grad_trust_region = 3
with_dep4 0
natorb = False
canonicalization = True
chkfile = ./scratch/158171/tmpgILe_w
max_memory 4000 MB (current use 429 MB)
internal_rotation = False

******** SHCI flags ********
executable             = /home/bamu3429/softwares/dice/Dice
mpiprefix              = mpirun -np 28
scratchDirectory       = ./scratch/158171
integralFile           = ./FCIDUMP
configFile             = ./input.dat
outputFile             = ./output.dat
maxIter                = 6
sweep_iter             = []
sweep_epsilon          = []
nPTiter                = 0
Stochastic             = True
fullrestart            = False
restart                = False
num_thrds              = 12
memory                 = None

CASCI E = -85.9965162168245  S^2 = 8.7500000
Set conv_tol_grad to 0.000316228
macro iter 1 (1 JK  1 micro), CASSCF E = -85.9965162168245  dE = 0  S^2 = 8.7500000
               |grad[o]|=5.45e-06  |grad[c]|= None  |ddm|=    0
1-step CASSCF converged in 1 macro (1 JK 1 micro) steps
CASSCF canonicalization
CASSCF energy = -85.9965162168245


--------------------------------------------------
                 ICMPSPT CALCULATION              
--------------------------------------------------

Perturbation type: MRLCC
With fully internally contracted scheme
With third order correction

Preparing necessary RDMs
......production of RDMs took       0.64 sec
Reading binary 4RDM from DICE
......reading the RDM took          1.01 sec

(GOOD) Trace 4RDM:    120.0 =    5*    4*    3*    2
(GOOD) Trace 3RDM:     60.0 =    5*    4*    3
(GOOD) Trace 2RDM:     20.0 =    5*    4
(GOOD) Trace 1RDM:      5.0 =    5

Energy_core =  -76.1013918837
Energy      =  -85.9965162168

WARNING: Have to use natural orbitals from CAASCF
         offdiagonal elements: 0.659987457932

Basic ingredients wrote to int/

Second-order:
perturber CCVV --        -0.122448406
perturber CCAV --        -0.052482015
perturber ACVV --        -0.182457249
perturber CCAA --        -0.023742684
perturber AAVV --        -0.088213244
perturber CAAV --        -0.098049498
perturber AAAV --        -0.000000000
perturber AAAC --        -0.000000029
Total:                   -0.567393126

Third-order:              0.004472623

Total PT       --        -0.562920504

