 &FCI NORB=6 ,NELEC=7 ,MS2=5,
  ORBSYM=1,1,1,1,1,1,
  ISYM=1,
 &END
  2.702733169192e-01    1  1  1  1
  1.840475720272e-07    2  1  1  1
  7.165748024558e-03    2  1  2  1
  3.462681366350e-01    2  2  1  1
 -1.187352811653e-03    2  2  2  1
  8.629491519486e-01    2  2  2  2
  2.816971450000e-11    3  1  1  1
 -2.786535316524e-12    3  1  2  1
 -1.757556090692e-07    3  1  2  2
  7.165754021479e-03    3  1  3  1
 -2.526487874205e-11    3  2  1  1
 -1.758254936547e-07    3  2  2  1
 -6.172514787934e-11    3  2  2  2
 -4.674094216847e-04    3  2  3  1
  2.085965050431e-02    3  2  3  2
  3.462681678617e-01    3  3  1  1
 -4.666408113812e-04    3  3  2  1
  8.212299166821e-01    3  3  2  2
 -1.007156964613e-06    3  3  3  1
 -6.472640119986e-11    3  3  3  2
  8.629492870797e-01    3  3  3  3
 -2.419728722270e-10    4  1  1  1
  7.680491473970e-11    4  1  2  1
  3.227567717787e-06    4  1  2  2
 -2.138943582207e-11    4  1  3  1
 -4.541522696675e-07    4  1  3  2
 -4.476949008317e-06    4  1  3  3
  7.165735945049e-03    4  1  4  1
 -2.330568327534e-10    4  2  1  1
  3.231502834996e-06    4  2  2  1
 -4.694129002559e-10    4  2  2  2
 -4.541416945714e-07    4  2  3  1
  6.532399234617e-06    4  2  3  2
  1.569191548346e-04    4  2  3  3
 -8.914725024164e-04    4  2  4  1
  2.693804347319e-02    4  2  4  2
  4.640832177400e-12    4  3  1  1
 -4.545727331586e-07    4  3  2  1
 -1.306479552907e-05    4  3  2  2
 -4.475453240586e-06    4  3  3  1
 -7.845986664080e-05    4  3  3  2
  1.441954031080e-11    4  3  3  3
 -6.365274010279e-07    4  3  4  1
 -4.824464435439e-06    4  3  4  2
  3.363523464340e-02    4  3  4  3
  3.462681723292e-01    4  4  1  1
 -8.910570273344e-04    4  4  2  1
  8.090731406614e-01    4  4  2  2
 -6.366690039062e-07    4  4  3  1
  9.648854470222e-06    4  4  3  2
  7.956788385450e-01    4  4  3  3
 -1.452214375013e-05    4  4  4  1
 -6.459799120128e-10    4  4  4  2
  1.437003574648e-11    4  4  4  3
  8.629493285837e-01    4  4  4  4
 -6.562468389905e-11    5  1  1  1
  1.248453303676e-07    5  1  2  2
 -2.762323702634e-11    5  1  3  1
 -7.972457635088e-06    5  1  3  2
  2.790867283279e-06    5  1  3  3
 -8.357953853624e-07    5  1  4  2
  1.195880357345e-03    5  1  4  3
 -2.763126546240e-06    5  1  4  4
  7.165765666356e-03    5  1  5  1
  2.580469511936e-12    5  2  1  1
  1.251264675462e-07    5  2  2  1
  1.463529323362e-11    5  2  2  2
 -7.973285112684e-06    5  2  3  1
 -7.494654464617e-05    5  2  3  2
  3.911157151004e-05    5  2  3  3
 -8.357422044046e-07    5  2  4  1
 -4.079736784589e-06    5  2  4  2
  1.713639625194e-02    5  2  4  3
 -4.026669139383e-05    5  2  4  4
  1.359002675806e-03    5  2  5  1
  3.802965377523e-02    5  2  5  2
 -6.596197209254e-12    5  3  1  1
 -7.971682829366e-06    5  3  2  1
  1.498932292974e-04    5  3  2  2
  2.791143199390e-06    5  3  3  1
 -1.955576158490e-05    5  3  3  2
  3.437290485053e-10    5  3  3  3
  1.195769973254e-03    5  3  4  1
 -1.124221706698e-02    5  3  4  2
  4.098977711887e-06    5  3  4  3
 -1.220794930161e-04    5  3  4  4
  9.718986758300e-07    5  3  5  1
  3.142344371953e-06    5  3  5  2
  3.363572221535e-02    5  3  5  3
 -8.358687063284e-07    5  4  2  1
  8.159456460991e-06    5  4  2  2
  1.195976217816e-03    5  4  3  1
 -5.894163909442e-03    5  4  3  2
 -8.197918678999e-06    5  4  3  3
 -2.762827344072e-06    5  4  4  1
  2.013333396548e-05    5  4  4  2
  6.104009562488e-05    5  4  4  3
  3.801983731139e-12    5  4  4  4
  9.313647320892e-06    5  4  5  1
  3.295621685163e-05    5  4  5  2
  5.231654626507e-07    5  4  5  3
  3.363594705104e-02    5  4  5  4
  3.462682258070e-01    5  5  1  1
  1.359638479997e-03    5  5  2  1
  7.868900939836e-01    5  5  2  2
  9.719114159145e-07    5  5  3  1
 -6.284712270654e-06    5  5  3  2
  7.956779798304e-01    5  5  3  3
  9.310918606650e-06    5  5  4  1
 -6.591256523602e-05    5  5  4  2
 -1.046311502591e-06    5  5  4  3
  7.956775509152e-01    5  5  4  4
 -1.192024469742e-07    5  5  5  1
  1.592354819624e-11    5  5  5  2
  3.436937480220e-10    5  5  5  3
  4.233066420724e-12    5  5  5  4
  8.629495614425e-01    5  5  5  5
  7.520159421222e-07    6  1  1  1
  9.493829869153e-09    6  1  2  1
  7.072360561406e-04    6  1  2  2
  4.710089695534e-12    6  1  3  1
 -4.099519051957e-07    6  1  3  2
  1.302789325229e-03    6  1  3  3
  5.015397304338e-11    6  1  4  1
  9.545964345363e-06    6  1  4  2
 -2.737807522809e-06    6  1  4  3
 -1.051010226128e-03    6  1  4  4
 -2.853718171795e-08    6  1  5  2
  1.250752542206e-06    6  1  5  3
 -1.628175746681e-09    6  1  5  4
 -2.413152154407e-04    6  1  5  5
  7.165765555720e-03    6  1  6  1
  2.527735754688e-08    6  2  1  1
  7.041279827706e-04    6  2  2  1
  7.374338053041e-08    6  2  2  2
 -4.099158332476e-07    6  2  3  1
 -4.462713587847e-06    6  2  3  2
  1.280743753208e-02    6  2  3  3
  9.547012030157e-06    6  2  4  1
  5.382355006032e-05    6  2  4  2
 -3.807151370127e-05    6  2  4  3
 -1.982664358043e-02    6  2  4  4
 -2.855528012267e-08    6  2  5  1
  1.125073816376e-07    6  2  5  2
  7.685991038582e-05    6  2  5  3
 -1.167326263760e-05    6  2  5  4
  7.019350128089e-03    6  2  5  5
  1.188034758240e-03    6  2  6  1
  3.866214050615e-02    6  2  6  2
  2.131758843975e-11    6  3  1  1
 -4.098983506538e-07    6  3  2  1
  8.925488697367e-06    6  3  2  2
  1.299606921109e-03    6  3  3  1
 -6.403677018001e-03    6  3  3  2
  8.479908623779e-11    6  3  3  3
 -2.737874209688e-06    6  3  4  1
  1.957377491043e-05    6  3  4  2
 -4.554218276760e-05    6  3  4  3
 -1.390844684536e-05    6  3  4  4
  1.250630910931e-06    6  3  5  1
 -9.128473774343e-05    6  3  5  2
  3.777557572982e-06    6  3  5  3
  1.638487488134e-02    6  3  5  4
  4.983106787050e-06    6  3  5  5
  8.475622335685e-07    6  3  6  1
  1.682132968559e-06    6  3  6  2
  3.635886293755e-02    6  3  6  3
  1.323380035199e-10    6  4  1  1
  9.546627008436e-06    6  4  2  1
 -1.076464903779e-04    6  4  2  2
 -2.737857347647e-06    6  4  3  1
  1.849771754007e-05    6  4  3  2
  9.108505123935e-05    6  4  3  3
 -1.054240692515e-03    6  4  4  1
  9.913354880837e-03    6  4  4  2
  6.954254133622e-06    6  4  4  3
  3.477848578651e-10    6  4  4  4
 -1.600815851187e-09    6  4  5  1
  9.510128056655e-06    6  4  5  2
 -1.329652198396e-02    6  4  5  3
 -3.890066239550e-06    6  4  5  4
  1.656248516229e-05    6  4  5  5
  6.448393787122e-06    6  4  6  1
  4.550354101648e-05    6  4  6  2
 -7.055508313930e-06    6  4  6  3
  3.028029307735e-02    6  4  6  4
 -2.854911087973e-08    6  5  2  1
 -2.250192354695e-07    6  5  2  2
  1.250889740132e-06    6  5  3  1
  1.442508299659e-05    6  5  3  2
 -7.555197847619e-06    6  5  3  3
 -1.610399428449e-09    6  5  4  1
  2.163159699793e-06    6  5  4  2
 -3.088388846670e-03    6  5  4  3
  7.780212151881e-06    6  5  4  4
 -2.448268479737e-04    6  5  5  1
 -3.509670631443e-03    6  5  5  2
 -2.491541015269e-06    6  5  5  3
 -8.281221418841e-06    6  5  5  4
 -3.464460211569e-08    6  5  6  1
 -5.775702739579e-07    6  5  6  2
  1.390652069461e-05    6  5  6  3
 -1.923723833406e-08    6  5  6  4
  1.918820818108e-02    6  5  6  5
  3.462682118772e-01    6  6  1  1
  1.188597359017e-03    6  6  2  1
  7.856250383100e-01    6  6  2  2
  8.475306834236e-07    6  6  3  1
 -3.364268672263e-06    6  6  3  2
  7.902315847397e-01    6  6  3  3
  6.445387861061e-06    6  6  4  1
 -9.100784947687e-05    6  6  4  2
  1.411119597554e-05    6  6  4  3
  8.023888867336e-01    6  6  4  4
 -3.495692135009e-08    6  6  5  1
  1.155157920891e-06    6  6  5  2
 -2.781277289462e-05    6  6  5  3
  3.847880191623e-08    6  6  5  4
  8.245731242827e-01    6  6  5  5
 -7.001529602640e-04    6  6  6  1
  1.413663899080e-08    6  6  6  2
  2.862774679687e-11    6  6  6  3
  1.299834830370e-10    6  6  6  4
  8.629495186121e-01    6  6  6  6
 -2.235860993866e+00    1  1  0  0
 -3.156473631616e-06    2  1  0  0
 -4.398452374087e+00    2  2  0  0
  5.531568119041e-12    3  1  0  0
  2.176568006763e-10    3  2  0  0
 -4.398452605284e+00    3  3  0  0
  1.295402197907e-08    4  1  0  0
  2.009810807733e-09    4  2  0  0
 -9.177530323455e-11    4  3  0  0
 -4.398452713271e+00    4  4  0  0
  1.472728726563e-09    5  1  0  0
 -5.295516488233e-11    5  2  0  0
 -1.256924599735e-09    5  3  0  0
 -1.770575968928e-11    5  4  0  0
 -4.398453147665e+00    5  5  0  0
 -1.643025810926e-05    6  1  0  0
 -2.022756971216e-07    6  2  0  0
 -2.207726080116e-10    6  3  0  0
 -1.336841939542e-09    6  4  0  0
  4.619148960816e-12    6  5  0  0
 -4.398453005904e+00    6  6  0  0
    -88.444510310732   0  0  0  0
