#INFO: **** input file is /projects/bamu3429/BENCHMARK/fresh_atoms/MRPT/vdz/atoms/Mn_0/mrpt.py ****
import json
from pyscf import gto,scf,mcscf, fci, lo, ci, cc
from pyscf.scf import ROHF, UHF,ROKS
import numpy as np
import pandas as pd

# THIS IS WERE IT STARTS ====================================

df=json.load(open("../../../trail.json"))

spins={'Sc':1, 'Ti':2, 'V':3, 'Cr':6, 'Mn':5, 'Fe':4, 'Cu':1}

nd={'Sc':(1,0), 'Ti':(2,0), 'V':(3,0), 'Cr':(5,0), 'Mn':(5,0), 'Fe':(5,1), 'Cu':(5,5)}

cas={'Sc':3, 'Ti':4, 'V':5, 'Cr':6, 'Mn':7, 'Fe':8, 'Cu':11}

datacsv={}
for nm in ['atom','charge','method','basis','pseudopotential','hf',
           'totalenergy','totalenergy-stocherr','totalenergy-syserr']:
  datacsv[nm]=[]

basis='vdz'
el='Mn'
charge=0

mol=gto.Mole()
mol.ecp={}
mol.basis={}
mol.ecp[el]=gto.basis.parse_ecp(df[el]['ecp'])
mol.basis[el]=gto.basis.parse(df[el][basis])
mol.charge=charge
if el == 'Cr' or el == 'Cu':
  mol.spin=spins[el]-charge
else:
  mol.spin=spins[el]+charge
mol.build(atom="%s 0. 0. 0."%el,verbose=4)

m=ROHF(mol)
m.level_shift=1000.0
dm=m.from_chk("../../../../HF/atoms/"+el+basis+str(charge)+".chk")
hf=m.kernel(dm)
m.analyze()

from pyscf.shciscf import shci
mc = shci.SHCISCF(m, 6, cas[el]-charge)
#mc.fcisolver.conv_tol = 1e-14
mc.fcisolver.mpiprefix="srun -n20"
mc.fcisolver.num_thrds=12
mc.verbose = 4
cas=mc.kernel()[0]
 
from pyscf.icmpspt import icmpspt
pt=icmpspt.icmpspt(mc,rdmM=500, PTM=1000,\
                          pttype="MRLCC",\
                          third_order=True,\
                          fully_ic=True,\
                          do_dm4=True)

datacsv['atom'].append(el)
datacsv['charge'].append(charge)
datacsv['method'].append('MRPT')
datacsv['basis'].append(basis)
datacsv['pseudopotential'].append('trail')
datacsv['hf'].append(hf)
datacsv['totalenergy'].append(cas+pt)
datacsv['totalenergy-stocherr'].append(0.0)
datacsv['totalenergy-syserr'].append(0.0)
pd.DataFrame(datacsv).to_csv(el+".csv",index=False)

#INFO: ******************** input file end ********************


System: ('Linux', 'bnode0302.rc.int.colorado.edu', '3.10.0-514.41.1.el7.x86_64', '#1 SMP Wed Jan 17 10:26:16 EST 2018', 'x86_64', 'x86_64')  Threads 28
Python 2.7.11 (default, Mar 22 2016, 01:42:54) 
[GCC Intel(R) C++ gcc 4.8 mode]
numpy 1.11.1  scipy 0.17.1
Date: Wed Apr 18 12:05:28 2018
PySCF version 1.4.6
PySCF path  /projects/bamu3429/softwares/pyscf_uptodate/pyscf
GIT ORIG_HEAD f3591ef22170896a4cdc2aadaa6f5da388ffcadb
GIT HEAD      ref: refs/heads/master
GIT master branch  1847583fb1d2472321833d3c71c8b7008e5fabf5

[INPUT] VERBOSE 4
[INPUT] num atoms = 1
[INPUT] num electrons = 15
[INPUT] charge = 0
[INPUT] spin (= nelec alpha-beta = 2S) = 5
[INPUT] symmetry False subgroup None
[INPUT]  1 Mn     0.000000000000   0.000000000000   0.000000000000 AA    0.000000000000   0.000000000000   0.000000000000 Bohr
[INPUT] ---------------- BASIS SET ---------------- 
[INPUT] l, kappa, [nprim/nctr], expnt,             c_1 c_2 ...
[INPUT] Mn
[INPUT] 0    0    [12   /1   ]  41.19094709       0.0124
                                21.94503151       -0.141461
                                12.89081507       0.669584
                                8.14876869        -1.015431
                                3.94904809        0.149151
                                1.91298055        0.350677
                                1.10736282        0.627006
                                0.4793266         0.235349
                                0.22675293        -0.024214
                                0.10639652        0.017357
                                0.05000494        -0.005272
                                0.0234982         0.002181
[INPUT] 0    0    [12   /1   ]  41.19094709       -0.002036
                                21.94503151       0.02709
                                12.89081507       -0.142056
                                8.14876869        0.229945
                                3.94904809        -0.035538
                                1.91298055        -0.085336
                                1.10736282        -0.24355
                                0.4793266         -0.201798
                                0.22675293        0.098761
                                0.10639652        0.439512
                                0.05000494        0.524416
                                0.0234982         0.13192
[INPUT] 0    0    [12   /1   ]  41.19094709       -0.004448
                                21.94503151       0.086272
                                12.89081507       -0.555298
                                8.14876869        1.050441
                                3.94904809        -0.337173
                                1.91298055        -1.203908
                                1.10736282        -0.006079
                                0.4793266         0.670363
                                0.22675293        0.824311
                                0.10639652        0.061945
                                0.05000494        -0.613998
                                0.0234982         -0.243067
[INPUT] 0    0    [1    /1   ]  0.0234982            1
[INPUT] 0    0    [1    /1   ]  0.01104221           1
[INPUT] 1    0    [12   /1   ]  60.1913049        0.000757
                                31.1792672        -0.006538
                                16.24276866       0.042902
                                8.80021485        -0.164602
                                5.33575038        0.099387
                                3.0325056         0.217723
                                1.63861968        0.443669
                                0.80258711        0.32785
                                0.40627833        0.098641
                                0.17382998        0.011768
                                0.07306386        -0.000703
                                0.03071005        0.000403
[INPUT] 1    0    [12   /1   ]  60.1913049        -0.000118
                                31.1792672        0.001208
                                16.24276866       -0.009122
                                8.80021485        0.038924
                                5.33575038        -0.027473
                                3.0325056         -0.058215
                                1.63861968        -0.124371
                                0.80258711        -0.107355
                                0.40627833        0.040741
                                0.17382998        0.350952
                                0.07306386        0.523294
                                0.03071005        0.234255
[INPUT] 1    0    [12   /1   ]  60.1913049        -0.000211
                                31.1792672        -0.002024
                                16.24276866       0.037014
                                8.80021485        -0.235453
                                5.33575038        0.184384
                                3.0325056         0.808525
                                1.63861968        0.15119
                                0.80258711        -0.861849
                                0.40627833        -0.476701
                                0.17382998        0.542345
                                0.07306386        0.419535
                                0.03071005        0.008828
[INPUT] 1    0    [1    /1   ]  0.03071005           1
[INPUT] 1    0    [1    /1   ]  0.01290798           1
[INPUT] 2    0    [10   /1   ]  52.56900844       0.000307
                                23.81654224       -0.007961
                                11.32693504       0.114253
                                4.99176622        0.164228
                                2.46839125        0.269996
                                1.15974738        0.320627
                                0.53124091        0.273188
                                0.24220121        0.161357
                                0.11248934        0.058244
                                0.05201371        0.009574
[INPUT] 2    0    [10   /1   ]  52.56900844       0.000227
                                23.81654224       0.005426
                                11.32693504       -0.108395
                                4.99176622        -0.200206
                                2.46839125        -0.359104
                                1.15974738        -0.096632
                                0.53124091        0.250081
                                0.24220121        0.404676
                                0.11248934        0.295662
                                0.05201371        0.077911
[INPUT] 2    0    [1    /1   ]  0.05201371           1
[INPUT] 2    0    [1    /1   ]  0.02405051           1
[INPUT] 3    0    [1    /1   ]  2.379676             1
[INPUT] 3    0    [1    /1   ]  1.10033338           1
nuclear repulsion = 0
number of shells = 16
number of NR pGTOs = 276
number of NR cGTOs = 54
basis = {'Mn': [[0, [41.19094709, 0.0124], [21.94503151, -0.141461], [12.89081507, 0.669584], [8.14876869, -1.015431], [3.94904809, 0.149151], [1.91298055, 0.350677], [1.10736282, 0.627006], [0.4793266, 0.235349], [0.22675293, -0.024214], [0.10639652, 0.017357], [0.05000494, -0.005272], [0.0234982, 0.002181]], [0, [41.19094709, -0.002036], [21.94503151, 0.02709], [12.89081507, -0.142056], [8.14876869, 0.229945], [3.94904809, -0.035538], [1.91298055, -0.085336], [1.10736282, -0.24355], [0.4793266, -0.201798], [0.22675293, 0.098761], [0.10639652, 0.439512], [0.05000494, 0.524416], [0.0234982, 0.13192]], [0, [41.19094709, -0.004448], [21.94503151, 0.086272], [12.89081507, -0.555298], [8.14876869, 1.050441], [3.94904809, -0.337173], [1.91298055, -1.203908], [1.10736282, -0.006079], [0.4793266, 0.670363], [0.22675293, 0.824311], [0.10639652, 0.061945], [0.05000494, -0.613998], [0.0234982, -0.243067]], [0, [0.0234982, 1.0]], [0, [0.01104221, 1.0]], [1, [60.1913049, 0.000757], [31.1792672, -0.006538], [16.24276866, 0.042902], [8.80021485, -0.164602], [5.33575038, 0.099387], [3.0325056, 0.217723], [1.63861968, 0.443669], [0.80258711, 0.32785], [0.40627833, 0.098641], [0.17382998, 0.011768], [0.07306386, -0.000703], [0.03071005, 0.000403]], [1, [60.1913049, -0.000118], [31.1792672, 0.001208], [16.24276866, -0.009122], [8.80021485, 0.038924], [5.33575038, -0.027473], [3.0325056, -0.058215], [1.63861968, -0.124371], [0.80258711, -0.107355], [0.40627833, 0.040741], [0.17382998, 0.350952], [0.07306386, 0.523294], [0.03071005, 0.234255]], [1, [60.1913049, -0.000211], [31.1792672, -0.002024], [16.24276866, 0.037014], [8.80021485, -0.235453], [5.33575038, 0.184384], [3.0325056, 0.808525], [1.63861968, 0.15119], [0.80258711, -0.861849], [0.40627833, -0.476701], [0.17382998, 0.542345], [0.07306386, 0.419535], [0.03071005, 0.008828]], [1, [0.03071005, 1.0]], [1, [0.01290798, 1.0]], [2, [52.56900844, 0.000307], [23.81654224, -0.007961], [11.32693504, 0.114253], [4.99176622, 0.164228], [2.46839125, 0.269996], [1.15974738, 0.320627], [0.53124091, 0.273188], [0.24220121, 0.161357], [0.11248934, 0.058244], [0.05201371, 0.009574]], [2, [52.56900844, 0.000227], [23.81654224, 0.005426], [11.32693504, -0.108395], [4.99176622, -0.200206], [2.46839125, -0.359104], [1.15974738, -0.096632], [0.53124091, 0.250081], [0.24220121, 0.404676], [0.11248934, 0.295662], [0.05201371, 0.077911]], [2, [0.05201371, 1.0]], [2, [0.02405051, 1.0]], [3, [2.379676, 1.0]], [3, [1.10033338, 1.0]]]}
ecp = {'Mn': [10, [[-1, [[], [[18.43432244, 15.0]], [[12.74175213, 31301.56494509], [11.67410914, -4576.3546318], [12.90376156, -26766.73507377], [4.97171871, -4.09339906]], [[8.79264819, 276.51483655]]]], [0, [[], [], [[13.56187871, 2771.78238977], [9.44812535, 12553.69429672], [10.76503846, 1886.79316638], [11.65345594, -9260.55332402], [8.48073002, -8943.95003535], [6.96707028, 1041.73211249]], []]], [1, [[], [], [[12.71342918, -23181.32761179], [18.03174513, 111577.22220216], [16.6827906, -42399.84416473], [13.18867124, 16025.79106608], [18.42861128, -76264.60573764], [12.90928974, 14270.47832347]], []]], [2, [[], [], [[8.13384228, -382.83904013], [14.28699222, 5676.99013005], [11.14406629, 35338.03440844], [11.37674978, -38881.44458388], [18.25818233, 3550.6602642], [17.73146307, -5317.47975296]], []]]]]}
CPU time:         3.47


******** <class 'pyscf.scf.rohf.ROHF'> flags ********
method = ROHF
initial guess = minao
damping factor = 0
level shift factor = 1000.0
DIIS = <class 'pyscf.scf.diis.CDIIS'>
DIIS start cycle = 1
DIIS space = 8
SCF tol = 1e-09
SCF gradient tol = None
max. SCF cycles = 50
direct_scf = True
direct_scf_tol = 1e-13
chkfile to save SCF result = /rc_scratch/bamu3429/tmpPJHbeA
max_memory 4000 MB (current use 97 MB)
num. doubly occ = 5  num. singly occ = 5
Set gradient conv threshold to 3.16228e-05
init E= -103.515547369614
  HOMO = 499.858967807277  LUMO = 1000.01952422756
cycle= 1 E= -103.515547369614  delta_E= -1.14e-13  |g|= 1.11e-05  |ddm|= 3.75e-08
  HOMO = -0.141032194047105  LUMO = 0.0195242275472413
Extra cycle  E= -103.51554736963  delta_E= -1.53e-11  |g|= 6.48e-06  |ddm|= 4.18e-05
converged SCF energy = -103.51554736963
**** MO energy ****
                Roothaan           | alpha              | beta
MO #1   energy= -4.02113165254793  | -4.2385075556521   | -3.80375574944387  occ= 2
MO #2   energy= -2.52780534447717  | -2.79169667430644  | -2.2639140146479   occ= 2
MO #3   energy= -2.52780514130943  | -2.79169668629173  | -2.26391359632711  occ= 2
MO #4   energy= -2.52780497820106  | -2.79169671316232  | -2.26391324323982  occ= 2
MO #5   energy= -0.252160871949157 | -0.270075208105637 | -0.234246535673504 occ= 2
MO #6   energy= -0.141032677405824 | -0.634752536575706 | 0.352686636186063  occ= 1
MO #7   energy= -0.141032665006783 | -0.634752103579213 | 0.35268676107909   occ= 1
MO #8   energy= -0.141032642841843 | -0.634751877853944 | 0.352686820837737  occ= 1
MO #9   energy= -0.141032246783955 | -0.634752211188751 | 0.352687280106605  occ= 1
MO #10  energy= -0.141032194047105 | -0.634752481777959 | 0.352687255864797  occ= 1
MO #11  energy= 0.0195242275472413 | 0.0180423030001506 | 0.0210061520943318 occ= 0
MO #12  energy= 0.0195242279621527 | 0.0180422999234965 | 0.0210061560008087 occ= 0
MO #13  energy= 0.0195242553904096 | 0.0180423591403572 | 0.021006151640461  occ= 0
MO #14  energy= 0.0235101910485235 | 0.0228371460818308 | 0.0241832359956828 occ= 0
MO #15  energy= 0.0637527623432819 | 0.0598754187517345 | 0.0676301059348307 occ= 0
MO #16  energy= 0.0637527640312491 | 0.0598754323792197 | 0.0676300956832793 occ= 0
MO #17  energy= 0.063752790823014  | 0.0598755261636122 | 0.067630055482414  occ= 0
MO #18  energy= 0.0735404410519251 | 0.0733720859375767 | 0.0737089877653208 occ= 0
MO #19  energy= 0.0735404738993736 | 0.073372089660688  | 0.0737088824808534 occ= 0
MO #20  energy= 0.0735405163617936 | 0.0733721319345675 | 0.0737089195940827 occ= 0
MO #21  energy= 0.0735405354377472 | 0.0733721669601009 | 0.0737090133723382 occ= 0
MO #22  energy= 0.073540547458623  | 0.0733721670458042 | 0.0737089682820468 occ= 0
MO #23  energy= 0.196674892035747  | 0.189774673572274  | 0.203575110478715  occ= 0
MO #24  energy= 0.224253652261829  | 0.219366924704832  | 0.229140889439875  occ= 0
MO #25  energy= 0.224253771761747  | 0.219366930279063  | 0.229140763609425  occ= 0
MO #26  energy= 0.224253875066643  | 0.21936711410606   | 0.229141012799102  occ= 0
MO #27  energy= 0.224253897589541  | 0.2193670513007    | 0.229140838176918  occ= 0
MO #28  energy= 0.224253918141929  | 0.219367127863252  | 0.229140986270768  occ= 0
MO #29  energy= 0.26937093224127   | 0.252314183513619  | 0.286427680968916  occ= 0
MO #30  energy= 0.269370993491872  | 0.25231434756881   | 0.286427639414935  occ= 0
MO #31  energy= 0.269371069081905  | 0.252314527808311  | 0.286427610355497  occ= 0
MO #32  energy= 1.38073186879597   | 1.28619296046337   | 1.475270862529     occ= 0
MO #33  energy= 1.38073206756711   | 1.28619316486547   | 1.47527108076734   occ= 0
MO #34  energy= 1.38073213955412   | 1.28619325909572   | 1.47527113855607   occ= 0
MO #35  energy= 1.38073217040399   | 1.28619315932964   | 1.47527101996715   occ= 0
MO #36  energy= 1.38073241846378   | 1.28619338045927   | 1.4752711146648    occ= 0
MO #37  energy= 1.77333669656988   | 1.71086271738781   | 1.83581067575424   occ= 0
MO #38  energy= 3.09392113061987   | 3.00640984121178   | 3.18143242002797   occ= 0
MO #39  energy= 3.09392137813169   | 3.00641005201255   | 3.18143270425082   occ= 0
MO #40  energy= 3.09392153697567   | 3.00641017463772   | 3.1814328993136    occ= 0
MO #41  energy= 3.18448212474564   | 3.08172625593443   | 3.28723799355684   occ= 0
MO #42  energy= 3.18448213705312   | 3.08172627068458   | 3.28723800342167   occ= 0
MO #43  energy= 3.18448230315001   | 3.08172648016238   | 3.28723812613763   occ= 0
MO #44  energy= 3.18448240815356   | 3.08172661182226   | 3.28723820448486   occ= 0
MO #45  energy= 3.1844824511084    | 3.08172666807066   | 3.28723823414613   occ= 0
MO #46  energy= 3.18448272800803   | 3.0817270270792    | 3.28723842893686   occ= 0
MO #47  energy= 3.18448273026246   | 3.08172703018497   | 3.28723843033994   occ= 0
MO #48  energy= 8.56146328541773   | 8.44771046464576   | 8.67521610618969   occ= 0
MO #49  energy= 8.56146333162123   | 8.44771053217157   | 8.67521613107089   occ= 0
MO #50  energy= 8.56146336460869   | 8.44771053358724   | 8.67521619563014   occ= 0
MO #51  energy= 8.56146351463365   | 8.44771067712423   | 8.6752163521431    occ= 0
MO #52  energy= 8.56146351993849   | 8.44771070398339   | 8.6752163358936    occ= 0
MO #53  energy= 8.56146374321084   | 8.44771076593966   | 8.67521672048201   occ= 0
MO #54  energy= 8.56146374323929   | 8.44771076707231   | 8.67521671940625   occ= 0
 ** Mulliken pop on meta-lowdin orthogonal AOs  **
 ** Mulliken pop  **
pop of  0Mn 3s        1.99998
pop of  0Mn 4s        1.99895
pop of  0Mn 5s        0.00035
pop of  0Mn 6s        0.00053
pop of  0Mn 7s        0.00019
pop of  0Mn 3px       1.99994
pop of  0Mn 3py       1.99994
pop of  0Mn 3pz       1.99994
pop of  0Mn 4px       0.00005
pop of  0Mn 4py       0.00005
pop of  0Mn 4pz       0.00005
pop of  0Mn 5px       0.00001
pop of  0Mn 5py       0.00001
pop of  0Mn 5pz       0.00001
pop of  0Mn 6px       0.00000
pop of  0Mn 6py       0.00000
pop of  0Mn 6pz       0.00000
pop of  0Mn 7px       0.00000
pop of  0Mn 7py       0.00000
pop of  0Mn 7pz       0.00000
pop of  0Mn 3dxy      0.99661
pop of  0Mn 3dyz      0.99661
pop of  0Mn 3dz^2     0.99661
pop of  0Mn 3dxz      0.99661
pop of  0Mn 3dx2-y2    0.99661
pop of  0Mn 4dxy      0.00242
pop of  0Mn 4dyz      0.00242
pop of  0Mn 4dz^2     0.00242
pop of  0Mn 4dxz      0.00242
pop of  0Mn 4dx2-y2    0.00242
pop of  0Mn 5dxy      0.00096
pop of  0Mn 5dyz      0.00096
pop of  0Mn 5dz^2     0.00096
pop of  0Mn 5dxz      0.00096
pop of  0Mn 5dx2-y2    0.00096
pop of  0Mn 6dxy      0.00002
pop of  0Mn 6dyz      0.00002
pop of  0Mn 6dz^2     0.00002
pop of  0Mn 6dxz      0.00002
pop of  0Mn 6dx2-y2    0.00002
pop of  0Mn 4fy^3     0.00000
pop of  0Mn 4fxyz     0.00000
pop of  0Mn 4fyz^2    0.00000
pop of  0Mn 4fz^3     0.00000
pop of  0Mn 4fxz^2    0.00000
pop of  0Mn 4fzx^2    0.00000
pop of  0Mn 4fx^3     0.00000
pop of  0Mn 5fy^3     0.00000
pop of  0Mn 5fxyz     0.00000
pop of  0Mn 5fyz^2    0.00000
pop of  0Mn 5fz^3     0.00000
pop of  0Mn 5fxz^2    0.00000
pop of  0Mn 5fzx^2    0.00000
pop of  0Mn 5fx^3     0.00000
 ** Mulliken atomic charges  **
charge of  0Mn =     -0.00000

******** <class 'pyscf.mcscf.mc1step.CASSCF'> flags ********
CAS (6e+1e, 6o), ncore = 4, nvir = 44
max_cycle_macro = 50
max_cycle_micro = 4
conv_tol = 1e-07
conv_tol_grad = None
orbital rotation max_stepsize = 0.02
augmented hessian ah_max_cycle = 30
augmented hessian ah_conv_tol = 1e-12
augmented hessian ah_linear dependence = 1e-14
augmented hessian ah_level shift = 0
augmented hessian ah_start_tol = 2.5
augmented hessian ah_start_cycle = 3
augmented hessian ah_grad_trust_region = 3
kf_trust_region = 3
kf_interval = 4
ci_response_space = 4
ci_grad_trust_region = 3
with_dep4 0
natorb = False
canonicalization = True
sorting_mo_energy = False
chkfile = ./scratch/189730/tmpaweY40
max_memory 4000 MB (current use 134 MB)
internal_rotation = False

******** SHCI flags ********
executable             = /home/bamu3429/softwares/dice/Dice
mpiprefix              = srun -n20
scratchDirectory       = ./scratch/189730
integralFile           = ./FCIDUMP
configFile             = ./input.dat
outputFile             = ./output.dat
maxIter                = 6
sweep_iter             = []
sweep_epsilon          = []
nPTiter                = 0
Stochastic             = True
fullrestart            = False
restart                = False
num_thrds              = 12
memory                 = None

CASCI E = -103.51554736963  S^2 = 8.7500000
Set conv_tol_grad to 0.000316228
macro iter 1 (1 JK  1 micro), CASSCF E = -103.51554736963  dE = 0  S^2 = 8.7500000
               |grad[o]|=6.2e-06  |grad[c]|= None  |ddm|=    0
1-step CASSCF converged in 1 macro (1 JK 1 micro) steps
CASSCF canonicalization
CASSCF energy = -103.51554736963


--------------------------------------------------
                 ICMPSPT CALCULATION              
--------------------------------------------------

Perturbation type: MRLCC
With fully internally contracted scheme
With third order correction

Preparing necessary RDMs
......production of RDMs took       9.05 sec
Reading binary 4RDM from DICE
......reading the RDM took          1.19 sec

(GOOD) Trace 4RDM:    840.0 =    7*    6*    5*    4
(GOOD) Trace 3RDM:    210.0 =    7*    6*    5
(GOOD) Trace 2RDM:     42.0 =    7*    6
(GOOD) Trace 1RDM:      7.0 =    7

Producing the integrals
......production of INT took      28.17 sec

Energy_core =  -88.44451031
Energy      = -103.51554737

WARNING: Have to use natural orbitals from CAASCF
         offdiagonal elements:    0.64376759

Basic ingredients written to int/
......savings of INGREDIENTS took      22.98 sec

Second-order:
perturber CCVV --        -0.071567746
perturber CCAV --        -0.041054331
perturber ACVV --        -0.107031443
perturber CCAA --        -0.028143585
perturber AAVV --        -0.119635189
perturber CAAV --        -0.101261390
perturber AAAV --        -0.003481928
perturber AAAC --        -0.000000000
Total:                   -0.472175612

Third-order:              0.001026563

Total PT       --        -0.471149048

