 &FCI NORB=9 ,NELEC=15 ,MS2=1,
  ORBSYM=1,1,1,1,1,1,1,1,1,
  ISYM=1,
 &END
  1.056769334418e+00    1  1  1  1
 -3.263973196106e-02    2  1  1  1
  4.283547563985e-02    2  1  2  1
  7.429192996246e-01    2  2  1  1
 -8.508655758592e-04    2  2  2  1
  6.890280371881e-01    2  2  2  2
 -1.326250736639e-08    3  1  1  1
 -5.119073884180e-09    3  1  2  1
  1.637815416630e-09    3  1  2  2
  4.375801149236e-02    3  1  3  1
  6.529722582303e-10    3  2  1  1
  1.089531922755e-10    3  2  2  1
 -3.872449599795e-11    3  2  2  2
 -4.306412533315e-03    3  2  3  1
  1.804222971586e-02    3  2  3  2
  9.247008651177e-01    3  3  1  1
  1.526395199939e-02    3  3  2  1
  7.453497359509e-01    3  3  2  2
  2.753161956903e-10    3  3  3  1
 -5.773591053033e-11    3  3  3  2
  1.025426037921e+00    3  3  3  3
  4.929725278392e-03    4  1  1  1
  5.768785159041e-03    4  1  2  1
  5.910411926108e-03    4  1  2  2
 -2.744914902129e-08    4  1  3  1
  9.752121689418e-10    4  1  3  2
  9.838156253778e-03    4  1  3  3
  2.462061297630e-02    4  1  4  1
  5.966294957546e-02    4  2  1  1
  2.160473928541e-03    4  2  2  1
  4.666192557492e-02    4  2  2  2
 -6.288854752946e-09    4  2  3  1
 -2.656195102289e-11    4  2  3  2
  6.837017220229e-02    4  2  3  3
 -6.259365097964e-04    4  2  4  1
  6.537194900282e-02    4  2  4  2
 -1.408365943754e-08    4  3  1  1
  2.104454555238e-09    4  3  2  1
  1.013504499227e-10    4  3  2  2
  3.786015086591e-03    4  3  3  1
  2.199090103414e-03    4  3  3  2
  3.998393688155e-10    4  3  3  3
 -9.784737294567e-09    4  3  4  1
  1.783109665179e-10    4  3  4  2
  4.156056261431e-03    4  3  4  3
  3.831574282720e-01    4  4  1  1
 -1.176305891392e-02    4  4  2  1
  4.776210737030e-01    4  4  2  2
 -2.108141910365e-09    4  4  3  1
 -3.227613235504e-10    4  4  3  2
  3.215461451893e-01    4  4  3  3
 -7.936891612410e-04    4  4  4  1
 -3.877107996167e-02    4  4  4  2
 -9.911141786253e-10    4  4  4  3
  7.607783380090e-01    4  4  4  4
  3.623839813255e-08    5  1  1  1
  1.497172713227e-08    5  1  2  1
 -2.130823608137e-09    5  1  2  2
 -3.412597105429e-02    5  1  3  1
  1.937438318726e-03    5  1  3  2
 -1.993915419878e-09    5  1  3  3
  5.848082792386e-08    5  1  4  1
  6.527258102444e-09    5  1  4  2
 -8.048374513658e-03    5  1  4  3
  6.744898066856e-10    5  1  4  4
  8.783316158686e-02    5  1  5  1
 -3.053088627350e-08    5  2  1  1
  1.122814454460e-09    5  2  2  1
 -3.564675283136e-08    5  2  2  2
 -8.266362747236e-03    5  2  3  1
  4.433961859033e-06    5  2  3  2
 -6.481564685194e-08    5  2  3  3
  5.104527921189e-09    5  2  4  1
 -2.619364237817e-08    5  2  4  2
  4.377144479904e-04    5  2  4  3
  3.318244285901e-08    5  2  4  4
  4.054013951327e-03    5  2  5  1
  3.074957036267e-02    5  2  5  2
 -1.188967184812e-02    5  3  1  1
  1.834626518947e-03    5  3  2  1
  1.221975451875e-05    5  3  2  2
 -4.094919602631e-09    5  3  3  1
  4.736983649230e-09    5  3  3  2
  1.127301859135e-05    5  3  3  3
 -6.347163649105e-03    5  3  4  1
 -2.675592549950e-04    5  3  4  2
  2.594451112422e-08    5  3  4  3
 -4.777569029675e-05    5  3  4  4
  3.982904187229e-09    5  3  5  1
  1.213191383132e-09    5  3  5  2
  3.967304834734e-02    5  3  5  3
  4.532293552632e-07    5  4  1  1
  2.123637057922e-08    5  4  2  1
  1.893183836480e-07    5  4  2  2
 -4.507916591102e-03    5  4  3  1
 -2.689351164524e-04    5  4  3  2
  4.855670803902e-07    5  4  3  3
  8.229047001355e-09    5  4  4  1
  8.623669256818e-08    5  4  4  2
 -4.177361913862e-04    5  4  4  3
 -3.464059673023e-07    5  4  4  4
  4.280371980625e-03    5  4  5  1
  4.890450857317e-03    5  4  5  2
  1.223905860811e-09    5  4  5  3
  1.608337990334e-03    5  4  5  4
  9.648604681434e-01    5  5  1  1
  1.358492779280e-02    5  5  2  1
  7.228493347362e-01    5  5  2  2
  5.185696692811e-09    5  5  3  1
 -1.803888549455e-09    5  5  3  2
  9.562483478524e-01    5  5  3  3
  7.187499712276e-03    5  5  4  1
  6.954933865861e-02    5  5  4  2
  6.912752417591e-10    5  5  4  3
  3.070042161704e-01    5  5  4  4
  9.764453703163e-10    5  5  5  1
 -4.980029550700e-08    5  5  5  2
  9.966249201960e-06    5  5  5  3
  5.683783389002e-07    5  5  5  4
  1.046414919071e+00    5  5  5  5
  1.082506456165e-01    6  1  1  1
 -3.468622685019e-03    6  1  2  1
  5.207957153473e-02    6  1  2  2
 -9.453118704557e-09    6  1  3  1
 -3.685448847159e-09    6  1  3  2
  8.627621916682e-02    6  1  3  3
  6.352757638211e-03    6  1  4  1
  1.261044559146e-02    6  1  4  2
 -1.588924109612e-08    6  1  4  3
 -3.107627217481e-02    6  1  4  4
  1.545806628518e-08    6  1  5  1
  4.473426365788e-09    6  1  5  2
 -2.219515991553e-02    6  1  5  3
  1.131403091295e-07    6  1  5  4
  1.130860296407e-01    6  1  5  5
  5.733376907680e-02    6  1  6  1
 -2.121890281395e-02    6  2  1  1
  2.095221197222e-02    6  2  2  1
 -6.687299414590e-03    6  2  2  2
 -3.437665626424e-09    6  2  3  1
 -3.478981579181e-11    6  2  3  2
 -8.314148825775e-03    6  2  3  3
  8.512319414544e-03    6  2  4  1
 -2.330285750650e-03    6  2  4  2
 -3.879205123780e-09    6  2  4  3
 -5.627786286063e-03    6  2  4  4
  2.447222278425e-08    6  2  5  1
  2.283575836964e-09    6  2  5  2
 -5.085416073229e-03    6  2  5  3
  8.198187503237e-09    6  2  5  4
  3.120173608648e-03    6  2  5  5
  1.468803882646e-02    6  2  6  1
  4.172933433272e-02    6  2  6  2
 -2.194660068610e-08    6  3  1  1
  7.307401426336e-09    6  3  2  1
 -1.189149900117e-09    6  3  2  2
  6.971744218302e-03    6  3  3  1
  1.845257032429e-03    6  3  3  2
 -1.746773024485e-10    6  3  3  3
 -1.298361988702e-08    6  3  4  1
  6.430730900020e-09    6  3  4  2
  5.809183437518e-03    6  3  4  3
 -4.122207687908e-09    6  3  4  4
 -2.220944388334e-02    6  3  5  1
  8.846087885955e-03    6  3  5  2
 -7.413444787136e-09    6  3  5  3
 -8.848093405435e-04    6  3  5  4
  2.590679050065e-10    6  3  5  5
  3.356983578097e-09    6  3  6  1
 -4.922109292575e-11    6  3  6  2
  3.744456300445e-02    6  3  6  3
  6.288848907706e-02    6  4  1  1
  7.465498645963e-03    6  4  2  1
  3.090783667392e-02    6  4  2  2
 -1.454733045623e-08    6  4  3  1
 -3.147079645626e-09    6  4  3  2
  7.108885905141e-02    6  4  3  3
 -9.529711871131e-03    6  4  4  1
  1.122317561621e-02    6  4  4  2
 -5.400627073575e-09    6  4  4  3
 -4.566385009798e-02    6  4  4  4
  5.728792906819e-08    6  4  5  1
 -4.008503901581e-09    6  4  5  2
 -7.591887137851e-04    6  4  5  3
  1.008885795309e-07    6  4  5  4
  7.695479250913e-02    6  4  5  5
  1.886448329976e-02    6  4  6  1
  8.042644691182e-03    6  4  6  2
 -1.584182725548e-08    6  4  6  3
  2.409098357228e-02    6  4  6  4
 -3.714445633765e-08    6  5  1  1
  2.490224814045e-08    6  5  2  1
 -2.260044155250e-08    6  5  2  2
 -2.214460425178e-02    6  5  3  1
 -5.144166727453e-03    6  5  3  2
 -6.103546112766e-08    6  5  3  3
  6.515206806806e-08    6  5  4  1
 -4.127397300920e-09    6  5  4  2
 -7.582605083501e-03    6  5  4  3
  4.722059746229e-08    6  5  4  4
  6.252518114925e-02    6  5  5  1
  3.166571789643e-03    6  5  5  2
  4.758750813694e-09    6  5  5  3
  6.898570501989e-03    6  5  5  4
 -6.902137739690e-08    6  5  5  5
 -9.848459975587e-09    6  5  6  1
  3.175675795321e-08    6  5  6  2
 -2.635322680144e-02    6  5  6  3
  5.174681338429e-08    6  5  6  4
  9.200558836016e-02    6  5  6  5
  8.988013581813e-01    6  6  1  1
  3.785125292620e-02    6  6  2  1
  7.373824951153e-01    6  6  2  2
  6.555086309855e-09    6  6  3  1
  5.905701513849e-09    6  6  3  2
  9.403516315323e-01    6  6  3  3
  1.648478122604e-02    6  6  4  1
  7.183242515131e-02    6  6  4  2
  5.654166625384e-09    6  6  4  3
  3.235980692032e-01    6  6  4  4
 -2.656122022647e-08    6  6  5  1
 -2.027037000748e-08    6  6  5  2
 -4.871591550291e-03    6  6  5  3
  5.139880542528e-07    6  6  5  4
  9.893822628635e-01    6  6  5  5
  1.185805244203e-01    6  6  6  1
  5.078229821236e-02    6  6  6  2
  4.349459374209e-08    6  6  6  3
  8.744125968316e-02    6  6  6  4
 -9.755147899079e-08    6  6  6  5
  1.131226470822e+00    6  6  6  6
 -4.664344504901e-02    7  1  1  1
  2.440063531028e-02    7  1  2  1
 -1.147491099202e-02    7  1  2  2
 -1.700206382829e-09    7  1  3  1
  7.596235226755e-11    7  1  3  2
 -1.319143295358e-02    7  1  3  3
  2.646727417663e-04    7  1  4  1
  5.894456202798e-04    7  1  4  2
  3.921751776797e-09    7  1  4  3
 -3.164544661906e-04    7  1  4  4
  4.803569327973e-09    7  1  5  1
  1.317563654808e-09    7  1  5  2
  5.009188876950e-03    7  1  5  3
 -9.000506604720e-09    7  1  5  4
 -1.313673170534e-02    7  1  5  5
 -1.074684620319e-02    7  1  6  1
  1.353382490286e-02    7  1  6  2
  4.378369175862e-09    7  1  6  3
  6.175298507160e-04    7  1  6  4
  1.434813312223e-08    7  1  6  5
  2.614198187413e-03    7  1  6  6
  2.420227034834e-02    7  1  7  1
  2.394424247645e-01    7  2  1  1
  8.980253638385e-03    7  2  2  1
  1.162713089295e-01    7  2  2  2
 -1.987602406783e-09    7  2  3  1
 -2.281533105650e-11    7  2  3  2
  2.766803451148e-01    7  2  3  3
  4.873547637651e-03    7  2  4  1
  2.966455541589e-02    7  2  4  2
  3.253033101404e-10    7  2  4  3
 -1.816572291599e-01    7  2  4  4
  2.126814619185e-09    7  2  5  1
 -1.967930957199e-08    7  2  5  2
 -4.132159403651e-06    7  2  5  3
  3.517282913201e-07    7  2  5  4
  2.744037792278e-01    7  2  5  5
  5.485282446627e-02    7  2  6  1
  4.479985173749e-03    7  2  6  2
  1.448364291316e-09    7  2  6  3
  5.225293484801e-02    7  2  6  4
 -3.981489214707e-08    7  2  6  5
  2.788322624142e-01    7  2  6  6
 -9.182730373570e-03    7  2  7  1
  2.214797449272e-01    7  2  7  2
  4.385536337455e-09    7  3  1  1
 -3.978188107961e-10    7  3  2  1
  3.171969520345e-12    7  3  2  2
 -6.470728188729e-03    7  3  3  1
  1.014388446697e-02    7  3  3  2
  3.707217195749e-12    7  3  3  3
  4.442887459852e-09    7  3  4  1
  3.403902350836e-11    7  3  4  2
 -2.384946983896e-03    7  3  4  3
  6.575129675525e-11    7  3  4  4
  6.778502197015e-03    7  3  5  1
 -4.190524987587e-05    7  3  5  2
  5.738940045067e-09    7  3  5  3
  5.015648536868e-05    7  3  5  4
 -1.551855306310e-09    7  3  5  5
 -2.067567946098e-09    7  3  6  1
  4.006208646249e-10    7  3  6  2
 -1.186780567112e-03    7  3  6  3
  6.548483209581e-10    7  3  6  4
  6.146814470387e-04    7  3  6  5
  6.754794962656e-11    7  3  6  6
  3.920702421853e-12    7  3  7  1
  2.800321073006e-12    7  3  7  2
  1.391032713769e-02    7  3  7  3
 -3.792589216511e-02    7  4  1  1
  5.935700397049e-03    7  4  2  1
 -3.219049205783e-02    7  4  2  2
 -4.984627531975e-09    7  4  3  1
  6.944146694821e-11    7  4  3  2
 -3.576775473997e-02    7  4  3  3
  1.589417546751e-03    7  4  4  1
 -6.498384891856e-02    7  4  4  2
  2.317929398454e-10    7  4  4  3
  1.024787752239e-02    7  4  4  4
  2.137411586215e-09    7  4  5  1
  6.655625709781e-08    7  4  5  2
 -1.229011623683e-04    7  4  5  3
 -2.591871159456e-08    7  4  5  4
 -2.762297276099e-02    7  4  5  5
 -9.841174047044e-04    7  4  6  1
  1.472538704726e-02    7  4  6  2
  6.560888353681e-09    7  4  6  3
 -2.220366591919e-03    7  4  6  4
  5.421090216080e-09    7  4  6  5
 -1.432293242551e-02    7  4  6  6
  3.926707469837e-03    7  4  7  1
 -1.492283765604e-03    7  4  7  2
 -5.008084136763e-11    7  4  7  3
  7.683969464464e-02    7  4  7  4
  2.710374047057e-08    7  5  1  1
 -2.380791609681e-09    7  5  2  1
  2.032445066701e-08    7  5  2  2
 -3.916879115293e-03    7  5  3  1
  2.890669015261e-05    7  5  3  2
  8.714485866796e-09    7  5  3  3
  9.671987950343e-10    7  5  4  1
  6.526114623134e-08    7  5  4  2
  3.730001955067e-04    7  5  4  3
 -1.482711383840e-09    7  5  4  4
  1.771569979698e-03    7  5  5  1
  2.042340209843e-02    7  5  5  2
  5.759729701718e-10    7  5  5  3
  2.674269992091e-03    7  5  5  4
  1.268414168889e-08    7  5  5  5
  7.544981647475e-09    7  5  6  1
 -1.082915091193e-08    7  5  6  2
  7.021688761158e-03    7  5  6  3
  2.699210056143e-09    7  5  6  4
  1.313977216000e-03    7  5  6  5
  2.504867741224e-08    7  5  6  6
 -1.666702436896e-09    7  5  7  1
 -4.093602296885e-09    7  5  7  2
 -2.035576857150e-05    7  5  7  3
 -4.598273871039e-08    7  5  7  4
  1.636686199268e-02    7  5  7  5
 -2.783942693516e-02    7  6  1  1
  1.657135468275e-02    7  6  2  1
 -7.129728640285e-03    7  6  2  2
 -1.765402281532e-09    7  6  3  1
  4.271772962373e-11    7  6  3  2
 -1.622008953078e-02    7  6  3  3
  4.842259409661e-03    7  6  4  1
  9.818966766502e-03    7  6  4  2
 -1.359562919328e-09    7  6  4  3
 -2.368173833080e-03    7  6  4  4
  1.547163440394e-08    7  6  5  1
 -7.485920107843e-09    7  6  5  2
 -2.009284693697e-03    7  6  5  3
 -3.496387770276e-09    7  6  5  4
 -7.946364943647e-03    7  6  5  5
  6.030498796405e-03    7  6  6  1
  2.620236530661e-02    7  6  6  2
 -2.960661611758e-10    7  6  6  3
  3.788177498582e-03    7  6  6  4
  2.310742944700e-08    7  6  6  5
  2.537886909966e-02    7  6  6  6
  8.304871470800e-03    7  6  7  1
 -7.190377462103e-03    7  6  7  2
 -1.201009709242e-10    7  6  7  3
 -2.744194113468e-03    7  6  7  4
  2.861494279260e-09    7  6  7  5
  2.349647430771e-02    7  6  7  6
  5.961391374192e-01    7  7  1  1
 -9.411937771601e-03    7  7  2  1
  5.811157454493e-01    7  7  2  2
  4.375968779519e-09    7  7  3  1
 -3.034011205109e-11    7  7  3  2
  5.762657769649e-01    7  7  3  3
  3.663541837300e-03    7  7  4  1
  2.841361239019e-02    7  7  4  2
 -8.221285042538e-11    7  7  4  3
  5.154616556519e-01    7  7  4  4
 -4.319009227921e-09    7  7  5  1
 -2.415922142232e-08    7  7  5  2
  7.666232738973e-05    7  7  5  3
  3.143795003593e-08    7  7  5  4
  5.560950687627e-01    7  7  5  5
  2.264726711202e-02    7  7  6  1
 -1.231160419207e-02    7  7  6  2
 -3.422596036953e-09    7  7  6  3
  7.062176397062e-03    7  7  6  4
 -5.861557969111e-09    7  7  6  5
  5.569842228171e-01    7  7  6  6
 -1.201811641458e-02    7  7  7  1
  2.230424958252e-02    7  7  7  2
 -1.462338201243e-12    7  7  7  3
 -3.289003555340e-02    7  7  7  4
  2.213901867016e-08    7  7  7  5
 -8.104947723203e-03    7  7  7  6
  5.366780052119e-01    7  7  7  7
  5.943344959528e-10    8  1  1  1
  1.166980473044e-09    8  1  2  1
 -1.135752229861e-09    8  1  2  2
 -6.726483961995e-03    8  1  3  1
  2.946149404106e-04    8  1  3  2
 -1.683259487834e-09    8  1  3  3
  4.299208866877e-09    8  1  4  1
  1.322833818197e-09    8  1  4  2
 -9.129437522724e-04    8  1  4  3
  5.061853068772e-10    8  1  4  4
  5.714265483123e-03    8  1  5  1
  1.860993697708e-03    8  1  5  2
  1.015596533764e-09    8  1  5  3
  6.982695893931e-04    8  1  5  4
 -2.397988195153e-09    8  1  5  5
  1.265056239385e-09    8  1  6  1
  4.789693130472e-10    8  1  6  2
 -1.309603791861e-03    8  1  6  3
  2.523294080271e-09    8  1  6  4
  3.777707599971e-03    8  1  6  5
 -2.865378099650e-09    8  1  6  6
  5.432519610498e-10    8  1  7  1
 -4.857684946803e-10    8  1  7  2
  1.550672888518e-03    8  1  7  3
  1.001459259679e-09    8  1  7  4
  1.030941417179e-03    8  1  7  5
  1.253121283133e-10    8  1  7  6
 -1.129435127833e-09    8  1  7  7
  5.959136537011e-03    8  1  8  1
  1.795968282018e-09    8  2  1  1
 -1.997532432781e-10    8  2  2  1
 -3.130754807943e-12    8  2  2  2
 -1.179464153672e-03    8  2  3  1
  5.395965106102e-04    8  2  3  2
 -7.382669340910e-12    8  2  3  3
  1.744105395433e-09    8  2  4  1
  3.598045482525e-12    8  2  4  2
  7.059073238459e-04    8  2  4  3
  2.081832788286e-10    8  2  4  4
  2.417131534173e-03    8  2  5  1
  2.457366205289e-07    8  2  5  2
 -6.554803662503e-10    8  2  5  3
  1.535947058314e-04    8  2  5  4
 -5.572059558180e-11    8  2  5  5
  4.863903959774e-10    8  2  6  1
  1.565152980597e-10    8  2  6  2
 -1.176454266023e-03    8  2  6  3
  1.682596720058e-09    8  2  6  4
  2.652642960274e-03    8  2  6  5
 -2.818580728164e-09    8  2  6  6
 -2.279993752457e-10    8  2  7  1
 -1.058811079042e-12    8  2  7  2
 -4.463929267445e-03    8  2  7  3
 -8.697514759141e-06    8  2  7  5
  9.268561270796e-11    8  2  7  6
 -2.130026654282e-12    8  2  7  7
 -3.368080588917e-04    8  2  8  1
  1.401580231387e-02    8  2  8  2
 -8.217233705172e-02    8  3  1  1
 -4.105403528715e-03    8  3  2  1
 -4.396657750158e-02    8  3  2  2
  4.873274217860e-10    8  3  3  1
  1.767426078262e-12    8  3  3  2
 -1.019070737863e-01    8  3  3  3
 -1.759658771213e-03    8  3  4  1
 -7.592395044164e-03    8  3  4  2
 -1.077503618796e-10    8  3  4  3
  4.530693977269e-02    8  3  4  4
 -1.384603919193e-10    8  3  5  1
  7.154538131739e-09    8  3  5  2
  4.654715841927e-06    8  3  5  3
 -1.070280468215e-07    8  3  5  4
 -9.436033546064e-02    8  3  5  5
 -1.599681426158e-02    8  3  6  1
 -7.027326973794e-04    8  3  6  2
 -3.620402235039e-10    8  3  6  3
 -1.548508797976e-02    8  3  6  4
  1.286201898973e-08    8  3  6  5
 -9.167411935314e-02    8  3  6  6
  2.263862503763e-03    8  3  7  1
 -6.098226223297e-02    8  3  7  2
  5.082125270908e-12    8  3  7  3
 -1.234140557278e-03    8  3  7  4
  3.515573367542e-09    8  3  7  5
  2.815774550487e-03    8  3  7  6
 -1.527471248694e-02    8  3  7  7
  2.558880700894e-10    8  3  8  1
  1.965316648114e-12    8  3  8  2
  2.161703484201e-02    8  3  8  3
  5.219826894184e-09    8  4  1  1
 -1.541775705160e-10    8  4  2  1
  7.979646545466e-12    8  4  2  2
 -4.162154170290e-03    8  4  3  1
  4.646451590020e-03    8  4  3  2
 -3.632899560980e-11    8  4  3  3
  4.351228038362e-09    8  4  4  1
  3.362622993925e-11    8  4  4  2
  1.577833280718e-02    8  4  4  3
  5.161902068579e-10    8  4  4  4
  5.636034203181e-03    8  4  5  1
 -3.561072674091e-05    8  4  5  2
 -1.442969641108e-08    8  4  5  3
  2.874693376984e-04    8  4  5  4
 -6.337198738487e-10    8  4  5  5
  2.633066387803e-09    8  4  6  1
  1.066659930937e-09    8  4  6  2
 -3.944824790027e-03    8  4  6  3
  3.383558316016e-09    8  4  6  4
  4.672578886007e-03    8  4  6  5
 -4.286192499049e-09    8  4  6  6
 -9.587357051847e-10    8  4  7  1
 -1.817352993866e-11    8  4  7  2
 -5.918901089720e-03    8  4  7  3
 -3.794069034815e-11    8  4  7  4
 -6.155942724319e-05    8  4  7  5
  4.602683676701e-10    8  4  7  6
  1.903264547692e-11    8  4  7  7
 -5.246339558473e-05    8  4  8  1
 -2.243976957761e-03    8  4  8  2
 -8.004527379968e-11    8  4  8  3
  1.480748800803e-01    8  4  8  4
  1.788732267181e-03    8  5  1  1
  3.532490041693e-04    8  5  2  1
 -1.321096706984e-05    8  5  2  2
  3.530197498153e-09    8  5  3  1
 -4.167123170899e-09    8  5  3  2
 -2.418652761111e-05    8  5  3  3
  5.627185534312e-04    8  5  4  1
  6.491510912969e-05    8  5  4  2
 -1.592219253166e-08    8  5  4  3
  6.710703403309e-05    8  5  4  4
 -3.815851043386e-09    8  5  5  1
 -2.504902527675e-10    8  5  5  2
 -5.724158959059e-03    8  5  5  3
 -3.816922950933e-10    8  5  5  4
 -3.160803693418e-05    8  5  5  5
  3.476427012923e-03    8  5  6  1
  1.176349684141e-03    8  5  6  2
  3.640011287029e-09    8  5  6  3
  5.971961051518e-04    8  5  6  4
 -3.544105556910e-09    8  5  6  5
  8.340045976781e-04    8  5  6  6
 -6.304364470864e-04    8  5  7  1
 -9.671391463083e-06    8  5  7  2
  3.457303416467e-09    8  5  7  3
  1.776755216955e-05    8  5  7  4
 -1.608162028067e-11    8  5  7  5
  3.484791945286e-04    8  5  7  6
 -1.943348396036e-05    8  5  7  7
 -4.605039453738e-10    8  5  8  1
  1.766800242820e-09    8  5  8  2
  3.362797191844e-06    8  5  8  3
 -1.118766544217e-07    8  5  8  4
  1.145509622353e-03    8  5  8  5
  4.230750369547e-09    8  6  1  1
 -1.027805634331e-09    8  6  2  1
  8.984573941926e-10    8  6  2  2
 -1.172978341427e-03    8  6  3  1
 -7.428981790755e-04    8  6  3  2
  1.345957839628e-09    8  6  3  3
  1.968932222342e-09    8  6  4  1
 -5.929362081111e-10    8  6  4  2
 -2.493255651427e-03    8  6  4  3
  6.795988490938e-10    8  6  4  4
  2.964164407891e-03    8  6  5  1
 -8.206153089655e-04    8  6  5  2
  2.314956496707e-09    8  6  5  3
  2.857636479555e-04    8  6  5  4
  1.190951165639e-09    8  6  5  5
 -5.416492441667e-10    8  6  6  1
 -4.741572864608e-10    8  6  6  2
 -4.707630205710e-03    8  6  6  3
  1.939565620920e-09    8  6  6  4
  3.490807717220e-03    8  6  6  5
 -4.666431930039e-09    8  6  6  6
 -6.405313499802e-10    8  6  7  1
  4.008227425089e-10    8  6  7  2
  8.576473477333e-04    8  6  7  3
 -8.782398958298e-10    8  6  7  4
 -9.449277162566e-04    8  6  7  5
 -1.086196585819e-10    8  6  7  6
  8.770889019420e-10    8  6  7  7
 -2.899765058614e-03    8  6  8  1
  2.445298585662e-04    8  6  8  2
 -1.972535553547e-10    8  6  8  3
 -1.462631237550e-02    8  6  8  4
  1.120527442936e-08    8  6  8  5
  4.295841525394e-03    8  6  8  6
 -2.958875349475e-09    8  7  1  1
  2.305909099408e-10    8  7  2  1
  4.231187831096e-12    8  7  2  2
  3.668342325593e-03    8  7  3  1
 -5.956972138346e-03    8  7  3  2
  1.391620893817e-11    8  7  3  3
 -2.980125166933e-09    8  7  4  1
 -6.217960317208e-12    8  7  4  2
 -2.742323929663e-03    8  7  4  3
 -2.059022732628e-10    8  7  4  4
 -4.323460915855e-03    8  7  5  1
  4.631363329297e-06    8  7  5  2
  1.575908087346e-10    8  7  5  3
 -1.493382508365e-04    8  7  5  4
  6.732276737125e-10    8  7  5  5
  3.639977527933e-10    8  7  6  1
 -2.109652222730e-10    8  7  6  2
  1.584862929153e-03    8  7  6  3
 -1.597935455985e-09    8  7  6  4
 -2.421245086385e-03    8  7  6  5
  2.351288936300e-09    8  7  6  6
  3.159508270241e-10    8  7  7  1
 -4.537384329135e-12    8  7  7  2
  2.314399735186e-03    8  7  7  3
 -5.776153330476e-12    8  7  7  4
  8.927822652660e-06    8  7  7  5
 -1.403389130058e-10    8  7  7  6
  5.171388538219e-12    8  7  7  7
  2.568965869831e-04    8  7  8  1
 -1.590031210807e-02    8  7  8  2
  8.391218979388e-12    8  7  8  3
 -1.353577369691e-02    8  7  8  4
  1.024918750399e-08    8  7  8  5
  1.245201075335e-03    8  7  8  6
  2.200413141333e-02    8  7  8  7
  3.728061331837e-01    8  8  1  1
 -1.097042246966e-02    8  8  2  1
  4.570745579626e-01    8  8  2  2
  3.984158340655e-09    8  8  3  1
  6.390823369706e-12    8  8  3  2
  3.227124558323e-01    8  8  3  3
 -9.348748612641e-05    8  8  4  1
 -1.702495084999e-02    8  8  4  2
 -3.380178154718e-10    8  8  4  3
  7.229158737659e-01    8  8  4  4
 -5.970252370922e-09    8  8  5  1
  8.791021558460e-09    8  8  5  2
  4.787697274148e-05    8  8  5  3
 -3.211436352140e-07    8  8  5  4
  3.054679539939e-01    8  8  5  5
 -2.835051559514e-02    8  8  6  1
 -8.468402555885e-03    8  8  6  2
 -2.958315749324e-09    8  8  6  3
 -4.350746947605e-02    8  8  6  4
  3.408226803982e-08    8  8  6  5
  3.165235453630e-01    8  8  6  6
 -6.969886791646e-05    8  8  7  1
 -1.627558190313e-01    8  8  7  2
 -5.347965898482e-12    8  8  7  3
 -1.475669770381e-02    8  8  7  4
  1.215631123363e-08    8  8  7  5
 -8.310596797170e-04    8  8  7  6
  4.936661827873e-01    8  8  7  7
 -4.547891326825e-10    8  8  8  1
  1.062161596696e-12    8  8  8  2
  4.876015820133e-02    8  8  8  3
  7.207214301180e-12    8  8  8  4
 -5.578521580666e-06    8  8  8  5
  3.210072002705e-10    8  8  8  6
  1.172883010186e-11    8  8  8  7
  7.478188999259e-01    8  8  8  8
 -2.208421740069e-02    9  1  1  1
  1.959665458943e-02    9  1  2  1
 -3.607353565135e-03    9  1  2  2
 -5.566419436485e-10    9  1  3  1
  2.361016105680e-10    9  1  3  2
 -1.306261029193e-03    9  1  3  3
  2.801033758003e-03    9  1  4  1
  6.120372867569e-04    9  1  4  2
  2.209565665862e-09    9  1  4  3
 -1.709381895224e-03    9  1  4  4
  7.391842785845e-09    9  1  5  1
  6.367693319344e-10    9  1  5  2
  2.404989454326e-03    9  1  5  3
  1.598297411623e-09    9  1  5  4
 -8.573057985064e-04    9  1  5  5
 -4.177517620159e-03    9  1  6  1
  1.202280417004e-02    9  1  6  2
  2.755983889185e-09    9  1  6  3
  2.892087029208e-03    9  1  6  4
  1.526483370363e-08    9  1  6  5
  1.102690137782e-02    9  1  6  6
  1.248600450258e-02    9  1  7  1
 -1.425727992486e-03    9  1  7  2
 -2.325741723849e-10    9  1  7  3
  2.704681218820e-03    9  1  7  4
 -1.271691511225e-09    9  1  7  5
  8.314563505935e-03    9  1  7  6
 -5.470873855001e-03    9  1  7  7
  3.880520708000e-10    9  1  8  1
 -1.458253553367e-10    9  1  8  2
 -4.465872947455e-04    9  1  8  3
  9.395486375797e-11    9  1  8  4
  2.531979909510e-04    9  1  8  5
 -3.999741282038e-10    9  1  8  6
 -2.231689173808e-11    9  1  8  7
 -2.177947133420e-03    9  1  8  8
  1.404316667782e-02    9  1  9  1
  1.642535326398e-01    9  2  1  1
  4.403283919240e-03    9  2  2  1
  9.375338745583e-02    9  2  2  2
 -6.178725996329e-10    9  2  3  1
 -1.490587299105e-11    9  2  3  2
  1.800897874483e-01    9  2  3  3
  3.149110075562e-03    9  2  4  1
  1.602369536797e-02    9  2  4  2
  1.595280817618e-10    9  2  4  3
 -7.281954414295e-02    9  2  4  4
  6.634835817366e-10    9  2  5  1
 -1.064085918431e-08    9  2  5  2
 -8.884763058935e-06    9  2  5  3
  1.929859711789e-07    9  2  5  4
  1.773023384041e-01    9  2  5  5
  3.349801430769e-02    9  2  6  1
  1.885966819918e-03    9  2  6  2
  4.663852119161e-10    9  2  6  3
  2.895751631781e-02    9  2  6  4
 -2.216154574316e-08    9  2  6  5
  1.805720040896e-01    9  2  6  6
 -5.894338490600e-03    9  2  7  1
  1.200435173625e-01    9  2  7  2
 -3.481992003521e-12    9  2  7  3
 -2.261512045922e-04    9  2  7  4
 -2.878057312657e-09    9  2  7  5
 -4.860555948316e-03    9  2  7  6
  3.367036999639e-02    9  2  7  7
 -4.360643131104e-10    9  2  8  1
 -3.454570944406e-02    9  2  8  3
 -5.024590397410e-12    9  2  8  4
 -4.315423588048e-06    9  2  8  5
  3.504777327299e-10    9  2  8  6
 -3.135506957219e-12    9  2  8  7
 -6.555496841026e-02    9  2  8  8
 -7.441129833362e-04    9  2  9  1
  7.278476904228e-02    9  2  9  2
  1.636336112402e-09    9  3  1  1
  9.887603943589e-12    9  3  2  1
 -6.020257918576e-11    9  3  2  2
 -3.082948561946e-03    9  3  3  1
  7.310095511486e-03    9  3  3  2
 -9.615828275968e-11    9  3  3  3
  1.593099325056e-09    9  3  4  1
  1.436924659735e-11    9  3  4  2
  2.800027196422e-04    9  3  4  3
 -1.117092733881e-10    9  3  4  4
  2.468685874603e-03    9  3  5  1
  8.374578547946e-07    9  3  5  2
  3.066903316650e-09    9  3  5  3
 -7.784993409181e-05    9  3  5  4
 -1.102814650242e-09    9  3  5  5
 -1.763773903064e-09    9  3  6  1
  4.185456551847e-11    9  3  6  2
  4.056902897941e-04    9  3  6  3
 -9.839996628811e-10    9  3  6  4
 -1.628625950008e-03    9  3  6  5
  1.802328217161e-09    9  3  6  6
  8.669283811165e-11    9  3  7  1
 -3.512457868012e-11    9  3  7  2
  3.121041545196e-03    9  3  7  3
 -7.559880999802e-12    9  3  7  4
  1.141123322988e-05    9  3  7  5
 -5.918514721743e-11    9  3  7  6
 -3.885243203079e-11    9  3  7  7
  4.038817729604e-04    9  3  8  1
 -1.229918508554e-03    9  3  8  2
  1.124277390017e-11    9  3  8  3
 -2.957175694946e-04    9  3  8  4
 -2.223148164072e-10    9  3  8  5
 -5.612351111898e-05    9  3  8  6
 -1.932897850809e-04    9  3  8  7
 -8.747747109204e-12    9  3  8  8
 -2.540857854222e-10    9  3  9  1
 -2.644759966638e-11    9  3  9  2
  8.239059100218e-03    9  3  9  3
 -5.696322971817e-03    9  4  1  1
  3.054314308478e-03    9  4  2  1
 -1.219670592692e-02    9  4  2  2
 -2.651098637247e-09    9  4  3  1
  1.794526012920e-11    9  4  3  2
 -3.721493452433e-03    9  4  3  3
  9.226559280748e-04    9  4  4  1
 -2.660607282763e-02    9  4  4  2
  9.955276040020e-11    9  4  4  3
 -1.244031888953e-02    9  4  4  4
  2.013032135400e-09    9  4  5  1
  3.054822087602e-08    9  4  5  2
 -8.712875490892e-05    9  4  5  3
  1.256553304380e-08    9  4  5  4
  9.032792159901e-04    9  4  5  5
  3.143130702641e-03    9  4  6  1
  6.856048673491e-03    9  4  6  2
  3.212221885406e-09    9  4  6  3
  2.272432209927e-03    9  4  6  4
  4.617746696195e-10    9  4  6  5
  4.914975661566e-03    9  4  6  6
  1.515213590349e-03    9  4  7  1
  1.117929128693e-02    9  4  7  2
 -1.958113549398e-11    9  4  7  3
  3.369605441989e-02    9  4  7  4
 -2.265111983815e-08    9  4  7  5
 -1.568987496811e-03    9  4  7  6
 -1.764537843800e-02    9  4  7  7
  6.117017938474e-10    9  4  8  1
  3.515609682509e-12    9  4  8  2
 -3.583480662650e-03    9  4  8  3
  4.480570655498e-11    9  4  8  4
  5.828478346042e-05    9  4  8  5
 -1.320477036858e-10    9  4  8  6
 -2.210605433668e-02    9  4  8  8
  8.061173460320e-04    9  4  9  1
  6.811359868831e-03    9  4  9  2
  7.339607248348e-12    9  4  9  3
  1.645798160260e-02    9  4  9  4
  9.147247603444e-09    9  5  1  1
 -1.176423630533e-09    9  5  2  1
  9.282706695178e-09    9  5  2  2
 -2.559915946888e-03    9  5  3  1
  5.380013400108e-06    9  5  3  2
 -3.345801957071e-09    9  5  3  3
  1.097114226147e-09    9  5  4  1
  2.998186317594e-08    9  5  4  2
  1.954611628717e-04    9  5  4  3
  1.409125818185e-08    9  5  4  4
  1.494536675981e-03    9  5  5  1
  1.238218714159e-02    9  5  5  2
  2.525085251729e-10    9  5  5  3
  2.282865969813e-03    9  5  5  4
 -1.820804037209e-09    9  5  5  5
  4.238623327151e-09    9  5  6  1
 -5.189930171575e-09    9  5  6  2
  3.755344603093e-03    9  5  6  3
 -4.321151585686e-10    9  5  6  4
  1.127764912771e-03    9  5  6  5
  1.022062059969e-08    9  5  6  6
 -6.729718993340e-10    9  5  7  1
 -9.593921076975e-09    9  5  7  2
 -1.729091830915e-05    9  5  7  3
 -2.236672082615e-08    9  5  7  4
  4.230168455297e-03    9  5  7  5
  1.580479407151e-09    9  5  7  6
  1.324832091631e-08    9  5  7  7
  7.328058898467e-04    9  5  8  1
 -2.149549434798e-06    9  5  8  2
  4.083636330076e-09    9  5  8  3
 -2.366003065443e-06    9  5  8  4
 -6.047135996108e-11    9  5  8  5
 -6.284912670941e-05    9  5  8  6
  3.643287475516e-06    9  5  8  7
  1.825572655727e-08    9  5  8  8
  2.712968900853e-11    9  5  9  1
 -5.697763522332e-09    9  5  9  2