#INFO: **** input file is /projects/bamu3429/BENCHMARK/fresh_atoms/MRPT/vdz/monoxides/CuO/mrpt.py ****
import json
from pyscf import gto,scf,mcscf, fci, lo, ci, cc
from pyscf.scf import ROHF, UHF,ROKS
import numpy as np
import pandas as pd

# THIS IS WERE IT STARTS ====================================

df=json.load(open("../../../trail.json"))

spins={'ScO':1, 'TiO':2, 'VO':3, 'CrO':4, 'MnO':5, 'FeO':4, 'CuO':1}

nd={'Sc':(1,0), 'Ti':(2,0), 'V':(3,0), 'Cr':(5,0), 'Mn':(5,0), 'Fe':(5,1), 'Cu':(5,4)}

cas={'Sc':3, 'Ti':4, 'V':5, 'Cr':6, 'Mn':7, 'Fe':8, 'Cu':11}

re={'ScO':1.668, 'TiO':1.623, 'VO':1.591, 'CrO':1.621, 'MnO':1.648, 'FeO':1.616, 'CuO':1.725}

datacsv={}
for nm in ['basis','charge','method','molecule','pseudopotential',
           'totalenergy','totalenergy-stocherr','totalenergy-syserr']:
  datacsv[nm]=[]

basis='vdz'
element='Cu'

mol=gto.Mole()
mol.ecp={}
mol.basis={}
for el in [element,'O']:
  mol.ecp[el]=gto.basis.parse_ecp(df[el]['ecp'])
  mol.basis[el]=gto.basis.parse(df[el][basis])
mol.charge=0
mol.spin=spins[element+'O']
mol.build(atom="%s 0. 0. 0.; O 0. 0. %g"%(element,re[element+'O']),verbose=4)

m=ROHF(mol)
m.level_shift=1000.0
dm=m.from_chk("../../../../HF/monoxides/"+element+basis+"0.chk")
hf=m.kernel(dm)
m.analyze()

from pyscf.shciscf import shci
mc = shci.SHCISCF(m, 9, 4+cas[element])
#mc.fcisolver.conv_tol = 1e-14
mc.fcisolver.mpiprefix="mpirun -np 28"
mc.fcisolver.num_thrds=12
mc.verbose = 4
cas=mc.kernel()[0]
 
from pyscf.icmpspt import icmpspt
pt=icmpspt.icmpspt(mc,rdmM=500, PTM=1000,\
                          pttype="MRLCC",\
                          third_order=True,\
                          fully_ic=True,\
                          do_dm4=True)

datacsv['basis'].append(basis)
datacsv['charge'].append(0)
datacsv['method'].append('MRPT')
datacsv['molecule'].append(element)
datacsv['pseudopotential'].append('trail')
datacsv['totalenergy'].append(cas+pt)
datacsv['totalenergy-stocherr'].append(0.0)
datacsv['totalenergy-syserr'].append(0.0)
pd.DataFrame(datacsv).to_csv(element+".csv",index=False)

#INFO: ******************** input file end ********************


System: ('Linux', 'bnode0304.rc.int.colorado.edu', '3.10.0-514.41.1.el7.x86_64', '#1 SMP Wed Jan 17 10:26:16 EST 2018', 'x86_64', 'x86_64')  Threads 28
Python 2.7.11 (default, Mar 22 2016, 01:42:54) 
[GCC Intel(R) C++ gcc 4.8 mode]
numpy 1.11.1  scipy 0.17.1
Date: Thu Mar 29 13:28:58 2018
PySCF version 1.4
PySCF path  /projects/bamu3429/softwares/pyscf_uptodate/pyscf
GIT ORIG_HEAD e2292e6edec2b0e0024c21b81de03db1d7bd4121
GIT HEAD      ref: refs/heads/master
GIT master branch  f3591ef22170896a4cdc2aadaa6f5da388ffcadb

[INPUT] VERBOSE 4
[INPUT] num atoms = 2
[INPUT] num electrons = 25
[INPUT] charge = 0
[INPUT] spin (= nelec alpha-beta = 2S) = 1
[INPUT] symmetry False subgroup None
[INPUT]  1 Cu     0.000000000000   0.000000000000   0.000000000000 AA    0.000000000000   0.000000000000   0.000000000000 Bohr
[INPUT]  2 O      0.000000000000   0.000000000000   1.725000000000 AA    0.000000000000   0.000000000000   3.259777564875 Bohr
[INPUT] ---------------- BASIS SET ---------------- 
[INPUT] l, kappa, [nprim/nctr], expnt,             c_1 c_2 ...
[INPUT] Cu
[INPUT] 0    0    [12   /1   ]  56.69692001       0.003858
                                20.1703448        -1.511163
                                16.89311889       5.262467
                                14.81117613       -4.140408
                                6.02025146        0.066973
                                2.45829434        0.59039
                                1.29773244        0.435
                                0.73258474        0.171005
                                0.2960966         0.014654
                                0.13350445        -0.001059
                                0.05975279        0.002343
                                0.0277617         7.2e-05
[INPUT] 0    0    [12   /1   ]  56.69692001       -0.000329
                                20.1703448        0.271255
                                16.89311889       -0.991333
                                14.81117613       0.80309
                                6.02025146        -0.009798
                                2.45829434        -0.162788
                                1.29773244        -0.157463
                                0.73258474        -0.146178
                                0.2960966         0.068557
                                0.13350445        0.45286
                                0.05975279        0.4989
                                0.0277617         0.13834
[INPUT] 0    0    [12   /1   ]  56.69692001       -0.002105
                                20.1703448        1.042902
                                16.89311889       -3.903361
                                14.81117613       3.253774
                                6.02025146        -0.265439
                                2.45829434        -0.912125
                                1.29773244        0.037508
                                0.73258474        0.288641
                                0.2960966         0.79856
                                0.13350445        0.406567
                                0.05975279        -0.520049
                                0.0277617         -0.530268
[INPUT] 0    0    [1    /1   ]  0.0277617            1
[INPUT] 0    0    [1    /1   ]  0.01289834           1
[INPUT] 1    0    [12   /1   ]  84.11621248       0.00021
                                41.67010486       -0.003354
                                20.84027636       0.054507
                                13.1175259        -0.185677
                                7.96834211        0.1136
                                4.08681185        0.286879
                                2.29416473        0.386568
                                1.21038981        0.304256
                                0.60503887        0.104511
                                0.23373223        0.008916
                                0.0905483         -0.000333
                                0.03498335        0.000208
[INPUT] 1    0    [12   /1   ]  84.11621248       4e-06
                                41.67010486       0.000359
                                20.84027636       -0.009409
                                13.1175259        0.03575
                                7.96834211        -0.025333
                                4.08681185        -0.064167
                                2.29416473        -0.086609
                                1.21038981        -0.086359
                                0.60503887        0.027529
                                0.23373223        0.324015
                                0.0905483         0.541358
                                0.03498335        0.260105
[INPUT] 1    0    [12   /1   ]  84.11621248       -0.000321
                                41.67010486       0.000199
                                20.84027636       0.04701
                                13.1175259        -0.273823
                                7.96834211        0.324037
                                4.08681185        0.758464
                                2.29416473        -0.019131
                                1.21038981        -0.776778
                                0.60503887        -0.428283
                                0.23373223        0.617543
                                0.0905483         0.395771
                                0.03498335        -0.001478
[INPUT] 1    0    [1    /1   ]  0.03498335           1
[INPUT] 1    0    [1    /1   ]  0.01351582           1
[INPUT] 2    0    [10   /1   ]  85.06963135       0.000306
                                37.22826442       -0.00619
                                15.61164981       0.135912
                                9.50636668        0.057336
                                5.30208049        0.240495
                                2.49612499        0.317037
                                1.13949453        0.29791
                                0.51100337        0.208077
                                0.230497          0.090388
                                0.11275594        0.026692
[INPUT] 2    0    [10   /1   ]  85.06963135       -7e-05
                                37.22826442       0.0059
                                15.61164981       -0.160721
                                9.50636668        -0.065337
                                5.30208049        -0.371031
                                2.49612499        -0.226835
                                1.13949453        0.189032
                                0.51100337        0.400876
                                0.230497          0.293272
                                0.11275594        0.143387
[INPUT] 2    0    [1    /1   ]  0.11275594           1
[INPUT] 2    0    [1    /1   ]  0.05515864           1
[INPUT] 3    0    [1    /1   ]  3.88318              1
[INPUT] 3    0    [1    /1   ]  1.89959783           1
[INPUT] O
[INPUT] 0    0    [10   /1   ]  57.663349         -0.002794
                                35.726816         0.023976
                                22.453757         -0.115974
                                14.732301         0.288033
                                9.739917          -0.274786
                                5.042008          -0.083789
                                2.157818          0.063778
                                1.002916          0.410182
                                0.421839          0.504044
                                0.173041          0.172152
[INPUT] 0    0    [1    /1   ]  0.222099             1
[INPUT] 0    0    [1    /1   ]  0.08884              1
[INPUT] 1    0    [10   /1   ]  52.47406          -0.000522
                                32.138432         0.004857
                                19.458579         -0.027749
                                11.839344         0.074258
                                7.91003           0.014369
                                3.670858          0.153479
                                1.53966           0.283685
                                0.647119          0.358201
                                0.267853          0.29559
                                0.107198          0.104889
[INPUT] 1    0    [1    /1   ]  0.252604             1
[INPUT] 1    0    [1    /1   ]  0.101042             1
[INPUT] 2    0    [1    /1   ]  1.223113             1
[INPUT] 2    0    [1    /1   ]  0.489245             1
nuclear repulsion = 34.9717113303652
number of shells = 24
number of NR pGTOs = 334
number of NR cGTOs = 76
basis = {'O': [[0, [57.663349, -0.002794], [35.726816, 0.023976], [22.453757, -0.115974], [14.732301, 0.288033], [9.739917, -0.274786], [5.042008, -0.083789], [2.157818, 0.063778], [1.002916, 0.410182], [0.421839, 0.504044], [0.173041, 0.172152]], [0, [0.222099, 1.0]], [0, [0.08884, 1.0]], [1, [52.47406, -0.000522], [32.138432, 0.004857], [19.458579, -0.027749], [11.839344, 0.074258], [7.91003, 0.014369], [3.670858, 0.153479], [1.53966, 0.283685], [0.647119, 0.358201], [0.267853, 0.29559], [0.107198, 0.104889]], [1, [0.252604, 1.0]], [1, [0.101042, 1.0]], [2, [1.223113, 1.0]], [2, [0.489245, 1.0]]], 'Cu': [[0, [56.69692001, 0.003858], [20.1703448, -1.511163], [16.89311889, 5.262467], [14.81117613, -4.140408], [6.02025146, 0.066973], [2.45829434, 0.59039], [1.29773244, 0.435], [0.73258474, 0.171005], [0.2960966, 0.014654], [0.13350445, -0.001059], [0.05975279, 0.002343], [0.0277617, 7.2e-05]], [0, [56.69692001, -0.000329], [20.1703448, 0.271255], [16.89311889, -0.991333], [14.81117613, 0.80309], [6.02025146, -0.009798], [2.45829434, -0.162788], [1.29773244, -0.157463], [0.73258474, -0.146178], [0.2960966, 0.068557], [0.13350445, 0.45286], [0.05975279, 0.4989], [0.0277617, 0.13834]], [0, [56.69692001, -0.002105], [20.1703448, 1.042902], [16.89311889, -3.903361], [14.81117613, 3.253774], [6.02025146, -0.265439], [2.45829434, -0.912125], [1.29773244, 0.037508], [0.73258474, 0.288641], [0.2960966, 0.79856], [0.13350445, 0.406567], [0.05975279, -0.520049], [0.0277617, -0.530268]], [0, [0.0277617, 1.0]], [0, [0.01289834, 1.0]], [1, [84.11621248, 0.00021], [41.67010486, -0.003354], [20.84027636, 0.054507], [13.1175259, -0.185677], [7.96834211, 0.1136], [4.08681185, 0.286879], [2.29416473, 0.386568], [1.21038981, 0.304256], [0.60503887, 0.104511], [0.23373223, 0.008916], [0.0905483, -0.000333], [0.03498335, 0.000208]], [1, [84.11621248, 4e-06], [41.67010486, 0.000359], [20.84027636, -0.009409], [13.1175259, 0.03575], [7.96834211, -0.025333], [4.08681185, -0.064167], [2.29416473, -0.086609], [1.21038981, -0.086359], [0.60503887, 0.027529], [0.23373223, 0.324015], [0.0905483, 0.541358], [0.03498335, 0.260105]], [1, [84.11621248, -0.000321], [41.67010486, 0.000199], [20.84027636, 0.04701], [13.1175259, -0.273823], [7.96834211, 0.324037], [4.08681185, 0.758464], [2.29416473, -0.019131], [1.21038981, -0.776778], [0.60503887, -0.428283], [0.23373223, 0.617543], [0.0905483, 0.395771], [0.03498335, -0.001478]], [1, [0.03498335, 1.0]], [1, [0.01351582, 1.0]], [2, [85.06963135, 0.000306], [37.22826442, -0.00619], [15.61164981, 0.135912], [9.50636668, 0.057336], [5.30208049, 0.240495], [2.49612499, 0.317037], [1.13949453, 0.29791], [0.51100337, 0.208077], [0.230497, 0.090388], [0.11275594, 0.026692]], [2, [85.06963135, -7e-05], [37.22826442, 0.0059], [15.61164981, -0.160721], [9.50636668, -0.065337], [5.30208049, -0.371031], [2.49612499, -0.226835], [1.13949453, 0.189032], [0.51100337, 0.400876], [0.230497, 0.293272], [0.11275594, 0.143387]], [2, [0.11275594, 1.0]], [2, [0.05515864, 1.0]], [3, [3.88318, 1.0]], [3, [1.89959783, 1.0]]]}
ecp = {'O': [2, [[-1, [[], [[10.27717748, 6.0]], [[15.99566749, 1232.50197768], [10.46901775, -696.47008301], [14.6384801, -2654.22657081], [12.57591181, 2101.67732548]], [[7.77739102, 61.66306486]]]], [0, [[], [], [[12.39426073, -656683.37638839], [12.38126171, 657858.57667068], [8.57671033, 511.50098405], [9.89256508, -2579.54665641], [28.05641604, -57.68129584], [17.24753607, 970.30940152]], []]], [1, [[], [], [[14.78918914, -363027.24258186], [14.82014018, 361852.52314043], [22.89622221, -1300.20069256], [8.51331893, -181.96869573], [11.48609758, 2194.87589959], [27.22017524, 451.19906206]], []]]]], 'Cu': [10, [[-1, [[], [[19.87662576, 19.0]], [[18.71397328, 13322.8315411], [8.24597653, -143.81933419], [17.99726398, -6835.89401414], [19.50653533, -6413.73731394]], [[9.35936389, 377.6558895]]]], [0, [[], [], [[12.04327682, 217421.85846016], [11.98352277, -215987.47192743], [9.67744501, 1647.53099822], [17.5806873, -5124.79596488], [17.5092588, -963.5691239], [19.80724162, 3071.81011765]], []]], [1, [[], [], [[15.48559732, 189560.54470794], [15.42430413, -181115.65838446], [17.81980355, -1937.67548293], [17.69074392, -2335.92086442], [17.98867265, -8634.52846732], [19.82460345, 4504.58524733]], []]], [2, [[], [], [[10.91448054, -5224.34215851], [14.69969344, -3653.65459704], [11.52370333, 8159.25189768], [19.81153965, -2763.94279097], [18.0197982, 6020.80732635], [14.46480052, -2560.14492979]], []]]]]}
CPU time:         3.75


******** <class 'pyscf.scf.rohf.ROHF'> flags ********
method = ROHF
initial guess = minao
damping factor = 0
level shift factor = 1000.0
DIIS = <class 'pyscf.scf.diis.CDIIS'>
DIIS start cycle = 1
DIIS space = 8
SCF tol = 1e-09
SCF gradient tol = None
max. SCF cycles = 50
direct_scf = True
direct_scf_tol = 1e-13
chkfile to save SCF result = /projects/bamu3429/BENCHMARK/fresh_atoms/MRPT/vdz/monoxides/CuO/tmpBZiJ_i
max_memory 4000 MB (current use 159 MB)
num. doubly occ = 12  num. singly occ = 1
Set gradient conv threshold to 3.16228e-05
init E= -212.235504301637
  HOMO = 499.859132723902  LUMO = 999.986738936647
cycle= 1 E= -212.235504301637  delta_E= -2.27e-13  |g|= 1.19e-05  |ddm|= 2.83e-08
  HOMO = -0.140867275967566  LUMO = -0.0132610635001051
Extra cycle  E= -212.235504301676  delta_E= -3.8e-11  |g|= 3.45e-06  |ddm|= 1.75e-05
converged SCF energy = -212.235504301676
**** MO energy ****
                Roothaan           | alpha              | beta
MO #1   energy= -5.26757833242943  | -5.268731494321    | -5.26642517053787  occ= 2
MO #2   energy= -3.53882192982972  | -3.54065498759921  | -3.53698887206023  occ= 2
MO #3   energy= -3.5346471548536   | -3.53666935069132  | -3.53262496004805  occ= 2
MO #4   energy= -3.53348454014043  | -3.53376659921855  | -3.53320248106231  occ= 2
MO #5   energy= -1.15151347415722  | -1.22653452053316  | -1.07649242778128  occ= 2
MO #6   energy= -0.540521186938788 | -0.543543270308372 | -0.537499103569205 occ= 2
MO #7   energy= -0.531380175369439 | -0.539931079907281 | -0.522829270831598 occ= 2
MO #8   energy= -0.523965664249342 | -0.533732057050971 | -0.514199518476751 occ= 2
MO #9   energy= -0.516187115425646 | -0.516721802380719 | -0.515652428470575 occ= 2
MO #10  energy= -0.516185439969449 | -0.516708038977526 | -0.515662840961371 occ= 2
MO #11  energy= -0.398939474560056 | -0.414158125746212 | -0.383720823373899 occ= 2
MO #12  energy= -0.390653163309856 | -0.400765754250254 | -0.380540572369456 occ= 2
MO #13  energy= -0.140867275967566 | -0.517154646545247 | 0.235420931236748  occ= 1
MO #14  energy= -0.0132610635001051 | -0.0138508716068084 | -0.0126712553934006 occ= 0
MO #15  energy= 0.0256369413284765 | 0.0251479278526311 | 0.0261259528318952 occ= 0
MO #16  energy= 0.0265401095439772 | 0.0264674806570621 | 0.0266127384308919 occ= 0
MO #17  energy= 0.0348284066735357 | 0.0343998755048192 | 0.0352569378422481 occ= 0
MO #18  energy= 0.0406572590976825 | 0.0405655584966551 | 0.0407489596987091 occ= 0
MO #19  energy= 0.0903075687867156 | 0.0883123576970199 | 0.0923027573159301 occ= 0
MO #20  energy= 0.0917655236873371 | 0.091485731949259  | 0.0920453154254174 occ= 0
MO #21  energy= 0.122955962783937  | 0.122121045188184  | 0.123790880379681  occ= 0
MO #22  energy= 0.158209122213478  | 0.157960961959872  | 0.158457282467079  occ= 0
MO #23  energy= 0.158285760601303  | 0.158046701074253  | 0.158524820128355  occ= 0
MO #24  energy= 0.170097840066514  | 0.167342367525721  | 0.172853210046788  occ= 0
MO #25  energy= 0.172991565252397  | 0.172615351010341  | 0.173367779494452  occ= 0
MO #26  energy= 0.181304072677644  | 0.18064337514905   | 0.181964770206227  occ= 0
MO #27  energy= 0.221846188224302  | 0.220941523386903  | 0.2227508530617    occ= 0
MO #28  energy= 0.336723004485129  | 0.331352661755013  | 0.342093252457107  occ= 0
MO #29  energy= 0.338499154175601  | 0.337822767166816  | 0.339175541184387  occ= 0
MO #30  energy= 0.369538062284007  | 0.366912478930612  | 0.372163645637394  occ= 0
MO #31  energy= 0.443614975082958  | 0.436504773591385  | 0.450725115876843  occ= 0
MO #32  energy= 0.44892745143151   | 0.448004295246425  | 0.449850607616594  occ= 0
MO #33  energy= 0.473328365405232  | 0.471081059778113  | 0.475575671032351  occ= 0
MO #34  energy= 0.496888856187151  | 0.49595688844689   | 0.49782082392741   occ= 0
MO #35  energy= 0.497025397458925  | 0.496090952440868  | 0.497959842476982  occ= 0
MO #36  energy= 0.533702736288638  | 0.522699414272085  | 0.544705871124147  occ= 0
MO #37  energy= 0.537450187833385  | 0.536020240339335  | 0.538880135327434  occ= 0
MO #38  energy= 0.569505465698695  | 0.564673732534629  | 0.574337198862751  occ= 0
MO #39  energy= 1.14819270588828   | 1.14008195955592   | 1.15630345222062   occ= 0
MO #40  energy= 1.44174652756208   | 1.41312934615879   | 1.47036370896536   occ= 0
MO #41  energy= 1.44194427203746   | 1.41382049723502   | 1.4700680468399    occ= 0
MO #42  energy= 1.54137011583491   | 1.51451476022577   | 1.5682254819738    occ= 0
MO #43  energy= 1.54202897419158   | 1.53388404186718   | 1.55017390651598   occ= 0
MO #44  energy= 1.55276210481935   | 1.54881977841268   | 1.556704431226     occ= 0
MO #45  energy= 1.57023379785316   | 1.50937668620925   | 1.63109078000784   occ= 0
MO #46  energy= 1.57352077157787   | 1.56625932734243   | 1.58078221581331   occ= 0
MO #47  energy= 2.11005880488929   | 2.10000104273467   | 2.12011656704387   occ= 0
MO #48  energy= 2.49153953625126   | 2.48400798066298   | 2.49907109183954   occ= 0
MO #49  energy= 2.6203148010006    | 2.61719857452438   | 2.62343102747678   occ= 0
MO #50  energy= 2.79094166447379   | 2.79053629923276   | 2.79134702971482   occ= 0
MO #51  energy= 2.79095260315491   | 2.79054668256573   | 2.79135852374409   occ= 0
MO #52  energy= 2.91284785833246   | 2.90811897472935   | 2.91757674315191   occ= 0
MO #53  energy= 2.91522014903703   | 2.91456772631707   | 2.91587257175699   occ= 0
MO #54  energy= 3.94117601206071   | 3.92865928165094   | 3.95369274247048   occ= 0
MO #55  energy= 4.20653852635136   | 4.16662153844129   | 4.24645551426143   occ= 0
MO #56  energy= 4.20701591125787   | 4.16842918473987   | 4.24560263777588   occ= 0
MO #57  energy= 4.32115638552317   | 4.28368674656442   | 4.3586260242501    occ= 0
MO #58  energy= 4.34436996584432   | 4.33837174412578   | 4.35036818756285   occ= 0
MO #59  energy= 4.85591752119161   | 4.85487142546672   | 4.8569636170151    occ= 0
MO #60  energy= 4.85872949877061   | 4.85854771419059   | 4.85891128335064   occ= 0
MO #61  energy= 5.10606758841146   | 5.10026493608246   | 5.11187024074041   occ= 0
MO #62  energy= 5.46977241324753   | 5.46961147623735   | 5.46993335025771   occ= 0
MO #63  energy= 5.46977251084447   | 5.46961160654823   | 5.46993341514072   occ= 0
MO #64  energy= 5.47195971077384   | 5.47114321886489   | 5.47277620268277   occ= 0
MO #65  energy= 5.47200516185352   | 5.47118465439527   | 5.47282566931178   occ= 0
MO #66  energy= 5.48420947815375   | 5.48277437095531   | 5.48564458535218   occ= 0
MO #67  energy= 5.55728806842732   | 5.55559224432819   | 5.55898389157551   occ= 0
MO #68  energy= 5.56037303865607   | 5.56011378991448   | 5.56063228739766   occ= 0
MO #69  energy= 6.13638492905512   | 6.13476622663218   | 6.13800363147799   occ= 0
MO #70  energy= 14.1559343306848   | 14.1556776965356   | 14.1561909648343   occ= 0
MO #71  energy= 14.1559345016629   | 14.1556779475494   | 14.1561910557765   occ= 0
MO #72  energy= 14.1583897327313   | 14.1574180453658   | 14.1593614200969   occ= 0
MO #73  energy= 14.1583962530398   | 14.1574314294787   | 14.1593610766009   occ= 0
MO #74  energy= 14.2063682548869   | 14.2050226590997   | 14.2077138506658   occ= 0
MO #75  energy= 14.2081033371353   | 14.2079207939611   | 14.2082858803094   occ= 0
MO #76  energy= 14.3052529802777   | 14.3046797057386   | 14.3058262548168   occ= 0
 ** Mulliken pop on meta-lowdin orthogonal AOs  **
 ** Mulliken pop  **
pop of  0Cu 3s        1.99998
pop of  0Cu 4s        0.33904
pop of  0Cu 5s        0.00354
pop of  0Cu 6s        0.00226
pop of  0Cu 7s        0.00085
pop of  0Cu 3px       1.99995
pop of  0Cu 3py       1.99996
pop of  0Cu 3pz       1.99988
pop of  0Cu 4px       0.00411
pop of  0Cu 4py       0.01787
pop of  0Cu 4pz       0.00863
pop of  0Cu 5px       0.00030
pop of  0Cu 5py       0.00158
pop of  0Cu 5pz       0.00024
pop of  0Cu 6px       0.00021
pop of  0Cu 6py       0.00210
pop of  0Cu 6pz       0.00028
pop of  0Cu 7px       0.00003
pop of  0Cu 7py       0.00031
pop of  0Cu 7pz       0.00008
pop of  0Cu 3dxy      1.99874
pop of  0Cu 3dyz      1.99153
pop of  0Cu 3dz^2     1.88984
pop of  0Cu 3dxz      1.98530
pop of  0Cu 3dx2-y2    1.99874
pop of  0Cu 4dxy      0.00058
pop of  0Cu 4dyz      0.00074
pop of  0Cu 4dz^2     0.00177
pop of  0Cu 4dxz      0.00076
pop of  0Cu 4dx2-y2    0.00058
pop of  0Cu 5dxy      0.00060
pop of  0Cu 5dyz      0.00079
pop of  0Cu 5dz^2     0.00252
pop of  0Cu 5dxz      0.00060
pop of  0Cu 5dx2-y2    0.00060
pop of  0Cu 6dxy      0.00004
pop of  0Cu 6dyz      0.00038
pop of  0Cu 6dz^2     0.00084
pop of  0Cu 6dxz      0.00002
pop of  0Cu 6dx2-y2    0.00004
pop of  0Cu 4fy^3     0.00000
pop of  0Cu 4fxyz     0.00001
pop of  0Cu 4fyz^2    0.00001
pop of  0Cu 4fz^3     0.00002
pop of  0Cu 4fxz^2    0.00001
pop of  0Cu 4fzx^2    0.00001
pop of  0Cu 4fx^3     0.00000
pop of  0Cu 5fy^3     0.00000
pop of  0Cu 5fxyz     0.00002
pop of  0Cu 5fyz^2    0.00006
pop of  0Cu 5fz^3     0.00004
pop of  0Cu 5fxz^2    0.00004
pop of  0Cu 5fzx^2    0.00002
pop of  0Cu 5fx^3     0.00000
pop of  1O 2s        1.92324
pop of  1O 3s        0.00083
pop of  1O 4s        0.00098
pop of  1O 2px       1.04323
pop of  1O 2py       1.93603
pop of  1O 2pz       1.81299
pop of  1O 3px       0.00042
pop of  1O 3py       0.00327
pop of  1O 3pz       0.00490
pop of  1O 4px       0.00066
pop of  1O 4py       0.00649
pop of  1O 4pz       0.00301
pop of  1O 3dxy      0.00001
pop of  1O 3dyz      0.00035
pop of  1O 3dz^2     0.00075
pop of  1O 3dxz      0.00024
pop of  1O 3dx2-y2    0.00001
pop of  1O 4dxy      0.00001
pop of  1O 4dyz      0.00174
pop of  1O 4dz^2     0.00348
pop of  1O 4dxz      0.00091
pop of  1O 4dx2-y2    0.00002
 ** Mulliken atomic charges  **
charge of  0Cu =      0.74357
charge of  1O =     -0.74357

******** <class 'pyscf.mcscf.mc1step.CASSCF'> flags ********
CAS (8e+7e, 9o), ncore = 5, nvir = 62
max_cycle_macro = 50
max_cycle_micro = 4
conv_tol = 1e-07
conv_tol_grad = None
orbital rotation max_stepsize = 0.02
augmented hessian ah_max_cycle = 30
augmented hessian ah_conv_tol = 1e-12
augmented hessian ah_linear dependence = 1e-14
augmented hessian ah_level shift = 0
augmented hessian ah_start_tol = 2.5
augmented hessian ah_start_cycle = 3
augmented hessian ah_grad_trust_region = 3
kf_trust_region = 3
kf_interval = 4
ci_response_space = 4
ci_grad_trust_region = 3
with_dep4 0
natorb = False
canonicalization = True
chkfile = ./scratch/110711/tmpAZ51D5
max_memory 4000 MB (current use 216 MB)
internal_rotation = False

******** SHCI flags ********
executable             = /home/bamu3429/softwares/dice/Dice
mpiprefix              = mpirun -np 28
scratchDirectory       = ./scratch/110711
integralFile           = ./FCIDUMP
configFile             = ./input.dat
outputFile             = ./output.dat
maxIter                = 6
sweep_iter             = []
sweep_epsilon          = []
nPTiter                = 0
Stochastic             = True
fullrestart            = False
restart                = False
num_thrds              = 12
memory                 = None

CASCI E = -212.236208841308  S^2 = 0.7500000
Set conv_tol_grad to 0.000316228
macro iter 1 (21 JK  4 micro), CASSCF E = -212.246440675431  dE = -0.010231834  S^2 = 0.7500000
               |grad[o]|=0.00801  |grad[c]|= None  |ddm|=0.0865
macro iter 2 (21 JK  4 micro), CASSCF E = -212.256039439856  dE = -0.0095987644  S^2 = 0.7500000
               |grad[o]|=0.0725  |grad[c]|= None  |ddm|=0.0556
macro iter 3 (20 JK  4 micro), CASSCF E = -212.258071282282  dE = -0.0020318424  S^2 = 0.7500000
               |grad[o]|=0.066  |grad[c]|= None  |ddm|=0.0695
macro iter 4 (21 JK  4 micro), CASSCF E = -212.258946403084  dE = -0.0008751208  S^2 = 0.7500000
               |grad[o]|=0.0435  |grad[c]|= None  |ddm|=0.0391
macro iter 5 (21 JK  4 micro), CASSCF E = -212.259587539247  dE = -0.00064113616  S^2 = 0.7500000
               |grad[o]|=0.0458  |grad[c]|= None  |ddm|=0.0266
macro iter 6 (21 JK  4 micro), CASSCF E = -212.260198635579  dE = -0.00061109633  S^2 = 0.7500000
               |grad[o]|=0.0469  |grad[c]|= None  |ddm|=0.0254
macro iter 7 (21 JK  4 micro), CASSCF E = -212.260805514599  dE = -0.00060687902  S^2 = 0.7500000
               |grad[o]|=0.0471  |grad[c]|= None  |ddm|=0.0284
macro iter 8 (21 JK  4 micro), CASSCF E = -212.261282110088  dE = -0.00047659549  S^2 = 0.7500000
               |grad[o]|=0.0466  |grad[c]|= None  |ddm|=0.0234
macro iter 9 (21 JK  4 micro), CASSCF E = -212.261716444247  dE = -0.00043433416  S^2 = 0.7500000
               |grad[o]|=0.0445  |grad[c]|= None  |ddm|=0.0243
macro iter 10 (21 JK  4 micro), CASSCF E = -212.262076230824  dE = -0.00035978658  S^2 = 0.7500000
               |grad[o]|=0.0425  |grad[c]|= None  |ddm|=0.0209
macro iter 11 (21 JK  4 micro), CASSCF E = -212.262369270235  dE = -0.00029303941  S^2 = 0.7500000
               |grad[o]|=0.0396  |grad[c]|= None  |ddm|=0.0206
macro iter 12 (21 JK  4 micro), CASSCF E = -212.262658796013  dE = -0.00028952578  S^2 = 0.7500000
               |grad[o]|=0.038  |grad[c]|= None  |ddm|=0.0185
macro iter 13 (21 JK  4 micro), CASSCF E = -212.262875124281  dE = -0.00021632827  S^2 = 0.7500000
               |grad[o]|=0.0349  |grad[c]|= None  |ddm|=0.0161
macro iter 14 (21 JK  4 micro), CASSCF E = -212.263061610479  dE = -0.0001864862  S^2 = 0.7500000
               |grad[o]|=0.0328  |grad[c]|= None  |ddm|=0.0151
macro iter 15 (21 JK  4 micro), CASSCF E = -212.263268913273  dE = -0.00020730279  S^2 = 0.7500000
               |grad[o]|=0.0302  |grad[c]|= None  |ddm|=0.015
macro iter 16 (21 JK  4 micro), CASSCF E = -212.263382793334  dE = -0.00011388006  S^2 = 0.7500000
               |grad[o]|=0.0282  |grad[c]|= None  |ddm|=0.014
macro iter 17 (21 JK  4 micro), CASSCF E = -212.263442726557  dE = -5.9933223e-05  S^2 = 0.7500000
               |grad[o]|=0.0265  |grad[c]|= None  |ddm|=0.0119
macro iter 18 (21 JK  4 micro), CASSCF E = -212.263527365456  dE = -8.4638899e-05  S^2 = 0.7500000
               |grad[o]|=0.0243  |grad[c]|= None  |ddm|=0.0121
macro iter 19 (21 JK  4 micro), CASSCF E = -212.263639869078  dE = -0.00011250362  S^2 = 0.7500000
               |grad[o]|=0.0218  |grad[c]|= None  |ddm|=0.00988
macro iter 20 (21 JK  4 micro), CASSCF E = -212.263718082083  dE = -7.8213005e-05  S^2 = 0.7500000
               |grad[o]|=0.0203  |grad[c]|= None  |ddm|=0.0103
macro iter 21 (21 JK  4 micro), CASSCF E = -212.263788623029  dE = -7.0540946e-05  S^2 = 0.7500000
               |grad[o]|=0.0204  |grad[c]|= None  |ddm|=0.00999
macro iter 22 (21 JK  4 micro), CASSCF E = -212.263887285193  dE = -9.8662164e-05  S^2 = 0.7500000
               |grad[o]|=0.0185  |grad[c]|= None  |ddm|=0.015
macro iter 23 (21 JK  4 micro), CASSCF E = -212.264042613972  dE = -0.00015532878  S^2 = 0.7500000
               |grad[o]|=0.0212  |grad[c]|= None  |ddm|=0.0104
macro iter 24 (21 JK  4 micro), CASSCF E = -212.264133291698  dE = -9.0677725e-05  S^2 = 0.7500000
               |grad[o]|=0.0157  |grad[c]|= None  |ddm|=0.00773
macro iter 25 (21 JK  4 micro), CASSCF E = -212.264187315885  dE = -5.4024187e-05  S^2 = 0.7500000
               |grad[o]|=0.0138  |grad[c]|= None  |ddm|=0.00638
macro iter 26 (17 JK  4 micro), CASSCF E = -212.264226839402  dE = -3.9523517e-05  S^2 = 0.7500000
               |grad[o]|=0.013  |grad[c]|= None  |ddm|=0.00668
macro iter 27 (21 JK  4 micro), CASSCF E = -212.26427855763  dE = -5.1718228e-05  S^2 = 0.7500000
               |grad[o]|=0.013  |grad[c]|= None  |ddm|=0.00594
macro iter 28 (21 JK  4 micro), CASSCF E = -212.264318943912  dE = -4.0386282e-05  S^2 = 0.7500000
               |grad[o]|=0.0129  |grad[c]|= None  |ddm|=0.00709
macro iter 29 (21 JK  4 micro), CASSCF E = -212.264348048252  dE = -2.910434e-05  S^2 = 0.7500000
               |grad[o]|=0.0124  |grad[c]|= None  |ddm|=0.00576
macro iter 30 (21 JK  4 micro), CASSCF E = -212.264381081957  dE = -3.3033706e-05  S^2 = 0.7500000
               |grad[o]|=0.0119  |grad[c]|= None  |ddm|=0.00531
macro iter 31 (7 JK  2 micro), CASSCF E = -212.264422617162  dE = -4.1535204e-05  S^2 = 0.7500000
               |grad[o]|=0.011  |grad[c]|= None  |ddm|=0.00394
macro iter 32 (17 JK  4 micro), CASSCF E = -212.264434414251  dE = -1.1797089e-05  S^2 = 0.7500000
               |grad[o]|=0.00992  |grad[c]|= None  |ddm|=0.00474
macro iter 33 (7 JK  2 micro), CASSCF E = -212.264459644888  dE = -2.5230637e-05  S^2 = 0.7500000
               |grad[o]|=0.00963  |grad[c]|= None  |ddm|=0.00262
macro iter 34 (7 JK  2 micro), CASSCF E = -212.264486897869  dE = -2.7252981e-05  S^2 = 0.7500000
               |grad[o]|=0.00911  |grad[c]|= None  |ddm|=0.00269
macro iter 35 (7 JK  2 micro), CASSCF E = -212.264514835848  dE = -2.7937979e-05  S^2 = 0.7500000
               |grad[o]|=0.0091  |grad[c]|= None  |ddm|=0.00186
macro iter 36 (7 JK  2 micro), CASSCF E = -212.264551476619  dE = -3.6640771e-05  S^2 = 0.7500000
               |grad[o]|=0.00904  |grad[c]|= None  |ddm|=0.00186
macro iter 37 (7 JK  2 micro), CASSCF E = -212.264599201942  dE = -4.7725323e-05  S^2 = 0.7500000
               |grad[o]|=0.00899  |grad[c]|= None  |ddm|=0.00221
macro iter 38 (7 JK  2 micro), CASSCF E = -212.264658509143  dE = -5.9307201e-05  S^2 = 0.7500000
               |grad[o]|=0.00899  |grad[c]|= None  |ddm|=0.00254
macro iter 39 (7 JK  2 micro), CASSCF E = -212.264728151686  dE = -6.9642543e-05  S^2 = 0.7500000
               |grad[o]|=0.009  |grad[c]|= None  |ddm|=0.00297
macro iter 40 (7 JK  2 micro), CASSCF E = -212.264804319276  dE = -7.616759e-05  S^2 = 0.7500000
               |grad[o]|=0.00905  |grad[c]|= None  |ddm|=0.00335
macro iter 41 (7 JK  2 micro), CASSCF E = -212.264880268817  dE = -7.5949541e-05  S^2 = 0.7500000
               |grad[o]|=0.0091  |grad[c]|= None  |ddm|=0.00362
macro iter 42 (7 JK  2 micro), CASSCF E = -212.264949567843  dE = -6.9299026e-05  S^2 = 0.7500000
               |grad[o]|=0.00912  |grad[c]|= None  |ddm|=0.00397
macro iter 43 (7 JK  2 micro), CASSCF E = -212.264996544517  dE = -4.6976674e-05  S^2 = 0.7500000
               |grad[o]|=0.00908  |grad[c]|= None  |ddm|=0.00354
macro iter 44 (7 JK  2 micro), CASSCF E = -212.26500895259  dE = -1.2408074e-05  S^2 = 0.7500000
               |grad[o]|=0.00901  |grad[c]|= None  |ddm|=0.00104
macro iter 45 (7 JK  2 micro), CASSCF E = -212.265019187903  dE = -1.0235312e-05  S^2 = 0.7500000
               |grad[o]|=0.00895  |grad[c]|= None  |ddm|=0.00114
macro iter 46 (7 JK  2 micro), CASSCF E = -212.265028683971  dE = -9.4960687e-06  S^2 = 0.7500000
               |grad[o]|=0.00891  |grad[c]|= None  |ddm|=0.000748
macro iter 47 (7 JK  2 micro), CASSCF E = -212.265038518677  dE = -9.8347058e-06  S^2 = 0.7500000
               |grad[o]|=0.00887  |grad[c]|= None  |ddm|=0.00127
macro iter 48 (7 JK  2 micro), CASSCF E = -212.265049250173  dE = -1.0731496e-05  S^2 = 0.7500000
               |grad[o]|=0.00883  |grad[c]|= None  |ddm|=0.00121
macro iter 49 (7 JK  2 micro), CASSCF E = -212.265059198231  dE = -9.9480579e-06  S^2 = 0.7500000
               |grad[o]|=0.00879  |grad[c]|= None  |ddm|=0.00126
macro iter 50 (7 JK  2 micro), CASSCF E = -212.265072327292  dE = -1.3129061e-05  S^2 = 0.7500000
               |grad[o]|=0.00876  |grad[c]|= None  |ddm|=0.00124
1-step CASSCF not converged, 50 macro (775 JK 162 micro) steps
CASSCF canonicalization
CASSCF energy = -212.265072327292


--------------------------------------------------
                 ICMPSPT CALCULATION              
--------------------------------------------------

Perturbation type: MRLCC
With fully internally contracted scheme
With third order correction

Preparing necessary RDMs
......production of RDMs took      49.17 sec
Reading binary 4RDM from DICE
......reading the RDM took         26.89 sec

(GOOD) Trace 4RDM:  32760.0 =   15*   14*   13*   12
(GOOD) Trace 3RDM:   2730.0 =   15*   14*   13
(GOOD) Trace 2RDM:    210.0 =   15*   14
(GOOD) Trace 1RDM:     15.0 =   15

Producing the integrals
......production of INT took      47.85 sec

Energy_core =  -169.052238861
Energy      =  -212.265072327

WARNING: Have to use natural orbitals from CAASCF
         offdiagonal elements: 1.38485240028

Basic ingredients written to int/
......savings of INGREDIENTS took      11.55 sec

Second-order:
perturber CCVV --        -0.112034281
perturber CCAV --        -0.009779421
perturber ACVV --        -0.337926941
perturber CCAA --        -0.000277217
perturber AAVV --        -0.308778115
perturber CAAV --        -0.062002664
perturber AAAV --        -0.094878811
perturber AAAC --        -0.000141806
Total:                   -0.925819257

Third-order:              0.000734490

Total PT       --        -0.925084767

