 &FCI NORB=6 ,NELEC=10 ,MS2=0,
  ORBSYM=1,1,1,1,1,1,
  ISYM=1,
 &END
  1.014183781098e+00    1  1  1  1
  1.641110902387e-08    2  1  1  1
  3.865123773017e-02    2  1  2  1
  9.368816295983e-01    2  2  1  1
 -1.079767737670e-08    2  2  2  1
  1.014183920755e+00    2  2  2  2
  2.733071373685e-08    3  1  1  1
  9.422321200646e-05    3  1  2  1
 -2.539034279432e-05    3  1  2  2
  3.864916954444e-02    3  1  3  1
 -1.770462367730e-04    3  2  1  1
  1.243433197189e-05    3  2  2  1
 -5.203982183127e-09    3  2  2  2
  1.047513110679e-04    3  2  3  1
  3.864875447271e-02    3  2  3  2
  9.368856369843e-01    3  3  1  1
 -1.926109575316e-04    3  3  2  1
  9.368862940558e-01    3  3  2  2
 -1.345934525715e-07    3  3  3  1
 -1.457788542230e-08    3  3  3  2
  1.014183719683e+00    3  3  3  3
 -6.453260333569e-06    4  1  1  1
 -1.310451115190e-05    4  1  2  1
 -1.946051456140e-04    4  1  2  2
 -6.505644896859e-05    4  1  3  1
 -2.010918308732e-02    4  1  3  2
  4.053582414749e-04    4  1  3  3
  4.444052247851e-02    4  1  4  1
  2.663461769661e-05    4  2  1  1
  9.885890295811e-05    4  2  2  1
 -1.765330828003e-07    4  2  2  2
  1.071377663597e-02    4  2  3  1
  1.167749242080e-04    4  2  3  2
 -4.312307157050e-05    4  2  3  3
 -1.011823380373e-04    4  2  4  1
  2.781288247811e-02    4  2  4  2
  1.201112412838e-04    4  3  1  1
  9.373457231226e-03    4  3  2  1
 -2.282021932550e-04    4  3  2  2
 -2.009954212640e-04    4  3  3  1
  2.145428148066e-05    4  3  3  2
  4.673431895936e-06    4  3  3  3
 -2.308911310275e-05    4  3  4  1
 -1.016634480552e-04    4  3  4  2
  2.627269012350e-02    4  3  4  3
  9.253538067558e-01    4  4  1  1
  2.018857970374e-04    4  4  2  1
  9.585310388163e-01    4  4  2  2
  4.621533511875e-05    4  4  3  1
  2.035496311681e-04    4  4  3  2
  9.616147811267e-01    4  4  3  3
  1.832653241208e-06    4  4  4  1
 -1.203352898626e-07    4  4  4  2
  3.245158599322e-06    4  4  4  3
  1.014150193828e+00    4  4  4  4
  2.789930912339e-07    5  1  1  1
 -9.756304663932e-06    5  1  2  1
 -8.102007753262e-05    5  1  2  2
  1.167944381766e-05    5  1  3  1
  7.714481890314e-04    5  1  3  2
  7.300834261247e-05    5  1  3  3
 -8.890694407223e-04    5  1  4  1
  9.356753651768e-06    5  1  4  2
 -3.910755527666e-06    5  1  4  3
  7.646939518791e-06    5  1  4  4
  2.125940657504e-02    5  1  5  1
  1.948548580328e-05    5  2  1  1
  4.324473982425e-05    5  2  2  1
 -3.037741811332e-07    5  2  2  2
  1.702272744354e-02    5  2  3  1
 -1.098302996723e-04    5  2  3  2
 -4.140377303008e-05    5  2  3  3
  1.805825135272e-04    5  2  4  1
  1.046620081867e-02    5  2  4  2
 -2.230497187005e-04    5  2  4  3
  2.193341031404e-05    5  2  4  4
  1.905297737566e-06    5  2  5  1
  3.785813331268e-02    5  2  5  2
 -2.305681040346e-05    5  3  1  1
 -1.779951300347e-02    5  3  2  1
  2.279623609656e-04    5  3  2  2
 -3.938431241067e-05    5  3  3  1
  2.074474118083e-05    5  3  3  2
 -8.600163378261e-06    5  3  3  3
 -2.855781558525e-05    5  3  4  1
 -6.558272176501e-05    5  3  4  2
 -9.577187374102e-03    5  3  4  3
 -2.022712334805e-04    5  3  4  4
  1.050405500536e-05    5  3  5  1
  1.136885206588e-05    5  3  5  2
  3.940854393884e-02    5  3  5  3
  1.783218649428e-03    5  4  1  1
 -1.899906636450e-04    5  4  2  1
 -2.095714453390e-02    5  4  2  2
  3.241244091548e-05    5  4  3  1
  2.889931549823e-04    5  4  3  2
  1.917386669985e-02    5  4  3  3
 -4.224719251073e-06    5  4  4  1
 -1.097340891509e-05    5  4  4  2
  1.007832927318e-04    5  4  4  3
  9.126510997590e-07    5  4  4  4
  1.021605764226e-04    5  4  5  1
 -8.173995247208e-06    5  4  5  2
 -5.655656318722e-05    5  4  5  3
  4.447468915568e-02    5  4  5  4
  9.716645276946e-01    5  5  1  1
 -3.802654221201e-06    5  5  2  1
  9.384573369703e-01    5  5  2  2
 -2.097517919131e-05    5  5  3  1
 -2.257683243151e-05    5  5  3  2
  9.353777240180e-01    5  5  3  3
 -2.107285312854e-04    5  5  4  1
  1.666436723253e-05    5  5  4  2
  1.032499261979e-04    5  5  4  3
  9.252863632218e-01    5  5  4  4
  2.783618746875e-07    5  5  5  1
 -2.151198716202e-08    5  5  5  2
  3.106564089311e-07    5  5  5  3
  5.055520047373e-06    5  5  5  4
  1.014182901648e+00    5  5  5  5
 -3.592476383597e-05    6  1  1  1
  3.588923311004e-06    6  1  2  1
  7.933057705568e-06    6  1  2  2
  1.493292621513e-05    6  1  3  1
  1.290377400179e-03    6  1  3  2
 -3.013720537195e-05    6  1  3  3
 -1.486989268895e-03    6  1  4  1
  1.367637145716e-05    6  1  4  2
  2.667667629449e-06    6  1  4  3
  5.815234206920e-06    6  1  4  4
  5.764017996465e-05    6  1  5  1
 -1.669955226791e-07    6  1  5  2
 -8.828483782175e-07    6  1  5  3
 -1.057077410483e-06    6  1  5  4
 -2.151114095602e-05    6  1  5  5
  2.813870782524e-02    6  1  6  1
  4.356772457270e-06    6  2  1  1
  2.165766755957e-05    6  2  2  1
 -2.159385182446e-06    6  2  2  2
  1.292038175512e-03    6  2  3  1
 -9.741787681130e-06    6  2  3  2
 -1.594566700832e-06    6  2  3  3
  1.424338274031e-05    6  2  4  1
  7.969326996480e-04    6  2  4  2
 -6.670311595356e-06    6  2  4  3
  8.058223208650e-07    6  2  4  4
  1.228398645667e-07    6  2  5  1
  1.263014572750e-03    6  2  5  2
 -1.858786706783e-05    6  2  5  3
  1.606290536317e-06    6  2  5  4
  2.686552696192e-06    6  2  5  5
  1.585958492006e-06    6  2  6  1
  2.813018535819e-02    6  2  6  2
 -5.517111823624e-06    6  3  1  1
  1.291598494486e-03    6  3  2  1
 -3.021275304080e-05    6  3  2  2
 -1.645760849157e-05    6  3  3  1
 -2.355050554669e-06    6  3  3  2
 -4.560099570153e-05    6  3  3  3
  2.638561182744e-06    6  3  4  1
 -6.683556370586e-06    6  3  4  2
  6.976531150776e-04    6  3  4  3
 -2.295760378152e-05    6  3  4  4
 -8.715533460232e-07    6  3  5  1
 -1.902067862411e-05    6  3  5  2
 -1.318770602898e-03    6  3  5  3
 -1.245714069604e-05    6  3  5  4
 -5.884785002673e-06    6  3  5  5
 -7.404090524224e-08    6  3  6  1
  1.123209262361e-06    6  3  6  2
  2.813251144468e-02    6  3  6  3
 -1.434285797825e-03    6  4  1  1
  1.371379867216e-05    6  4  2  1
  8.516801489068e-04    6  4  2  2
  2.674589125654e-06    6  4  3  1
 -6.288830400690e-06    6  4  3  2
  7.532756409745e-04    6  4  3  3
  1.931399872154e-05    6  4  4  1
  3.208821482138e-08    6  4  4  2
 -1.815085912047e-06    6  4  4  3
  1.543262255558e-03    6  4  4  4
 -1.022984728869e-06    6  4  5  1
  1.634029633048e-06    6  4  5  2
 -1.194429656261e-05    6  4  5  3
 -1.707394551336e-04    6  4  5  4
 -1.425657166864e-03    6  4  5  5
 -1.322521397095e-06    6  4  6  1
 -3.492138576342e-08    6  4  6  2
  8.894060041946e-07    6  4  6  3
  2.812907419719e-02    6  4  6  4
  7.095569483995e-05    6  5  1  1
  4.535794106860e-07    6  5  2  1
  1.274124964401e-03    6  5  2  2
 -8.570761755199e-07    6  5  3  1
 -1.879864151414e-05    6  5  3  2
 -1.304807023887e-03    6  5  3  3
 -1.026523009345e-06    6  5  4  1
  1.631937984259e-06    6  5  4  2
 -1.192829988777e-05    6  5  4  3
 -1.583309988636e-04    6  5  4  4
 -7.148256904968e-06    6  5  5  1
  1.922412920890e-06    6  5  5  2
  1.452399350175e-05    6  5  5  3
 -1.478330601823e-03    6  5  5  4
  1.859146481718e-04    6  5  5  5
  5.518441442698e-08    6  5  6  1
 -8.955956724280e-08    6  5  6  2
 -1.637714116957e-06    6  5  6  3
  1.703260308901e-06    6  5  6  4
  2.813860170058e-02    6  5  6  5
  6.721792708832e-01    6  6  1  1
  2.816355055603e-06    6  6  2  1
  6.721641355280e-01    6  6  2  2
 -1.324707899312e-07    6  6  3  1
  1.994069145085e-06    6  6  3  2
  6.721682326036e-01    6  6  3  3
 -2.345177104841e-06    6  6  4  1
 -6.201969717638e-08    6  6  4  2
  1.584349630857e-06    6  6  4  3
  6.721620955504e-01    6  6  4  4
  9.873099844504e-08    6  6  5  1
 -1.588720352539e-07    6  6  5  2
 -2.907248339114e-06    6  6  5  3
  3.035657118159e-06    6  6  5  4
  6.721790646851e-01    6  6  5  5
 -4.298979626683e-06    6  6  6  1
  2.391935500153e-07    6  6  6  2
 -6.403565522145e-06    6  6  6  3
  1.663554615838e-05    6  6  6  4
  3.919660955142e-06    6  6  6  5
  5.589488934852e-01    6  6  6  6
 -9.214586083557e+00    1  1  0  0
 -5.474805726163e-06    2  1  0  0
 -9.214556949759e+00    2  2  0  0
  2.471055163293e-07    3  1  0  0
 -3.903755705294e-06    3  2  0  0
 -9.214564883421e+00    3  3  0  0
  4.620633579675e-06    4  1  0  0
  1.193650153033e-07    4  2  0  0
 -3.036646466445e-06    4  3  0  0
 -9.214552894247e+00    4  4  0  0
 -1.859341617189e-07    5  1  0  0
  3.096763527018e-07    5  2  0  0
  5.661693954858e-06    5  3  0  0
 -5.928784984334e-06    5  4  0  0
 -9.214585437725e+00    5  5  0  0
  1.290897572128e-04    6  1  0  0
 -7.161263010166e-06    6  2  0  0
  1.926452219700e-04    6  3  0  0
 -5.040588251728e-04    6  4  0  0
 -1.186066195536e-04    6  5  0  0
 -6.154210463452e+00    6  6  0  0
   -146.243203209669   0  0  0  0
