#INFO: **** input file is /projects/bamu3429/BENCHMARK/fresh_atoms/MRPT/vtz/atoms/Cu_1/mrpt.py ****
import json
from pyscf import gto,scf,mcscf, fci, lo, ci, cc
from pyscf.scf import ROHF, UHF,ROKS
import numpy as np
import pandas as pd

# THIS IS WERE IT STARTS ====================================

df=json.load(open("../../../trail.json"))

spins={'Sc':1, 'Ti':2, 'V':3, 'Cr':6, 'Mn':5, 'Fe':4, 'Cu':1}

nd={'Sc':(1,0), 'Ti':(2,0), 'V':(3,0), 'Cr':(5,0), 'Mn':(5,0), 'Fe':(5,1), 'Cu':(5,5)}

cas={'Sc':3, 'Ti':4, 'V':5, 'Cr':6, 'Mn':7, 'Fe':8, 'Cu':11}

datacsv={}
for nm in ['atom','charge','method','basis','pseudopotential','hf',
           'totalenergy','totalenergy-stocherr','totalenergy-syserr']:
  datacsv[nm]=[]

basis='vtz'
el='Cu'
charge=1

mol=gto.Mole()
mol.ecp={}
mol.basis={}
mol.ecp[el]=gto.basis.parse_ecp(df[el]['ecp'])
mol.basis[el]=gto.basis.parse(df[el][basis])
mol.charge=charge
if el == 'Cr' or el == 'Cu':
  mol.spin=spins[el]-charge
else:
  mol.spin=spins[el]+charge
mol.build(atom="%s 0. 0. 0."%el,verbose=4)

m=ROHF(mol)
m.level_shift=1000.0
dm=m.from_chk("../../../../HF/atoms/"+el+basis+str(charge)+".chk")
hf=m.kernel(dm)
m.analyze()

from pyscf.shciscf import shci
mc = shci.SHCISCF(m, 6, cas[el]-charge)
#mc.fcisolver.conv_tol = 1e-14
mc.fcisolver.mpiprefix="srun -n20"
mc.fcisolver.num_thrds=12
mc.verbose = 4
cas=mc.kernel()[0]
 
from pyscf.icmpspt import icmpspt
pt=icmpspt.icmpspt(mc,rdmM=500, PTM=1000,\
                          pttype="MRLCC",\
                          third_order=True,\
                          fully_ic=True,\
                          do_dm4=True)

datacsv['atom'].append(el)
datacsv['charge'].append(charge)
datacsv['method'].append('MRPT')
datacsv['basis'].append(basis)
datacsv['pseudopotential'].append('trail')
datacsv['hf'].append(hf)
datacsv['totalenergy'].append(cas+pt)
datacsv['totalenergy-stocherr'].append(0.0)
datacsv['totalenergy-syserr'].append(0.0)
pd.DataFrame(datacsv).to_csv(el+".csv",index=False)

#INFO: ******************** input file end ********************


System: ('Linux', 'bnode0302.rc.int.colorado.edu', '3.10.0-514.41.1.el7.x86_64', '#1 SMP Wed Jan 17 10:26:16 EST 2018', 'x86_64', 'x86_64')  Threads 28
Python 2.7.11 (default, Mar 22 2016, 01:42:54) 
[GCC Intel(R) C++ gcc 4.8 mode]
numpy 1.11.1  scipy 0.17.1
Date: Wed Apr 18 16:33:50 2018
PySCF version 1.4.6
PySCF path  /projects/bamu3429/softwares/pyscf_uptodate/pyscf
GIT ORIG_HEAD f3591ef22170896a4cdc2aadaa6f5da388ffcadb
GIT HEAD      ref: refs/heads/master
GIT master branch  1847583fb1d2472321833d3c71c8b7008e5fabf5

[INPUT] VERBOSE 4
[INPUT] num atoms = 1
[INPUT] num electrons = 18
[INPUT] charge = 1
[INPUT] spin (= nelec alpha-beta = 2S) = 0
[INPUT] symmetry False subgroup None
[INPUT]  1 Cu     0.000000000000   0.000000000000   0.000000000000 AA    0.000000000000   0.000000000000   0.000000000000 Bohr
[INPUT] ---------------- BASIS SET ---------------- 
[INPUT] l, kappa, [nprim/nctr], expnt,             c_1 c_2 ...
[INPUT] Cu
[INPUT] 0    0    [12   /1   ]  56.69692001       0.003858
                                20.1703448        -1.511163
                                16.89311889       5.262467
                                14.81117613       -4.140408
                                6.02025146        0.066973
                                2.45829434        0.59039
                                1.29773244        0.435
                                0.73258474        0.171005
                                0.2960966         0.014654
                                0.13350445        -0.001059
                                0.05975279        0.002343
                                0.0277617         7.2e-05
[INPUT] 0    0    [12   /1   ]  56.69692001       -0.000329
                                20.1703448        0.271255
                                16.89311889       -0.991333
                                14.81117613       0.80309
                                6.02025146        -0.009798
                                2.45829434        -0.162788
                                1.29773244        -0.157463
                                0.73258474        -0.146178
                                0.2960966         0.068557
                                0.13350445        0.45286
                                0.05975279        0.4989
                                0.0277617         0.13834
[INPUT] 0    0    [12   /1   ]  56.69692001       -0.002467
                                20.1703448        1.109338
                                16.89311889       -4.134563
                                14.81117613       3.441198
                                6.02025146        -0.295299
                                2.45829434        -0.948212
                                1.29773244        0.104998
                                0.73258474        0.272398
                                0.2960966         0.781279
                                0.13350445        0.403482
                                0.05975279        -0.504819
                                0.0277617         -0.537516
[INPUT] 0    0    [12   /1   ]  56.69692001       0.007169
                                20.1703448        -2.290439
                                16.89311889       8.576039
                                14.81117613       -7.236243
                                6.02025146        1.069217
                                2.45829434        1.904655
                                1.29773244        -1.704423
                                0.73258474        -0.959586
                                0.2960966         0.398011
                                0.13350445        1.19757
                                0.05975279        -0.332252
                                0.0277617         -0.640028
[INPUT] 0    0    [1    /1   ]  0.0277617            1
[INPUT] 0    0    [1    /1   ]  0.01289834           1
[INPUT] 1    0    [12   /1   ]  84.11621248       0.00021
                                41.67010486       -0.003354
                                20.84027636       0.054507
                                13.1175259        -0.185677
                                7.96834211        0.1136
                                4.08681185        0.286879
                                2.29416473        0.386568
                                1.21038981        0.304256
                                0.60503887        0.104511
                                0.23373223        0.008916
                                0.0905483         -0.000333
                                0.03498335        0.000208
[INPUT] 1    0    [12   /1   ]  84.11621248       4e-06
                                41.67010486       0.000359
                                20.84027636       -0.009409
                                13.1175259        0.03575
                                7.96834211        -0.025333
                                4.08681185        -0.064167
                                2.29416473        -0.086609
                                1.21038981        -0.086359
                                0.60503887        0.027529
                                0.23373223        0.324015
                                0.0905483         0.541358
                                0.03498335        0.260105
[INPUT] 1    0    [12   /1   ]  84.11621248       -0.000267
                                41.67010486       -6.4e-05
                                20.84027636       0.047925
                                13.1175259        -0.277144
                                7.96834211        0.331958
                                4.08681185        0.774366
                                2.29416473        -0.100864
                                1.21038981        -0.807332
                                0.60503887        -0.321021
                                0.23373223        0.668842
                                0.0905483         0.367628
                                0.03498335        -0.000935
[INPUT] 1    0    [12   /1   ]  84.11621248       5.7e-05
                                41.67010486       -0.001547
                                20.84027636       0.089243
                                13.1175259        -0.63532
                                7.96834211        1.278388
                                4.08681185        0.622329
                                2.29416473        -1.509876
                                1.21038981        -0.580496
                                0.60503887        1.497693
                                0.23373223        -0.085087
                                0.0905483         -0.662473
                                0.03498335        0.018623
[INPUT] 1    0    [1    /1   ]  0.03498335           1
[INPUT] 1    0    [1    /1   ]  0.01351582           1
[INPUT] 2    0    [10   /1   ]  85.06963135       0.000306
                                37.22826442       -0.00619
                                15.61164981       0.135912
                                9.50636668        0.057336
                                5.30208049        0.240495
                                2.49612499        0.317037
                                1.13949453        0.29791
                                0.51100337        0.208077
                                0.230497          0.090388
                                0.11275594        0.026692
[INPUT] 2    0    [10   /1   ]  85.06963135       -6.7e-05
                                37.22826442       0.005894
                                15.61164981       -0.160149
                                9.50636668        -0.06449
                                5.30208049        -0.378253
                                2.49612499        -0.223915
                                1.13949453        0.192556
                                0.51100337        0.40631
                                0.230497          0.288029
                                0.11275594        0.137167
[INPUT] 2    0    [10   /1   ]  85.06963135       0.000676
                                37.22826442       0.002685
                                15.61164981       -0.164508
                                9.50636668        -0.124255
                                5.30208049        -0.491432
                                2.49612499        0.308336
                                1.13949453        0.656459
                                0.51100337        -0.049831
                                0.230497          -0.426374
                                0.11275594        -0.340335
[INPUT] 2    0    [1    /1   ]  0.11275594           1
[INPUT] 2    0    [1    /1   ]  0.05515864           1
[INPUT] 3    0    [1    /1   ]  5.302569             1
[INPUT] 3    0    [1    /1   ]  1.403579             1
[INPUT] 3    0    [1    /1   ]  0.37152444           1
[INPUT] 4    0    [1    /1   ]  4.659861             1
[INPUT] 4    0    [1    /1   ]  1.23345551           1
nuclear repulsion = 0
number of shells = 22
number of NR pGTOs = 399
number of NR cGTOs = 88
basis = {'Cu': [[0, [56.69692001, 0.003858], [20.1703448, -1.511163], [16.89311889, 5.262467], [14.81117613, -4.140408], [6.02025146, 0.066973], [2.45829434, 0.59039], [1.29773244, 0.435], [0.73258474, 0.171005], [0.2960966, 0.014654], [0.13350445, -0.001059], [0.05975279, 0.002343], [0.0277617, 7.2e-05]], [0, [56.69692001, -0.000329], [20.1703448, 0.271255], [16.89311889, -0.991333], [14.81117613, 0.80309], [6.02025146, -0.009798], [2.45829434, -0.162788], [1.29773244, -0.157463], [0.73258474, -0.146178], [0.2960966, 0.068557], [0.13350445, 0.45286], [0.05975279, 0.4989], [0.0277617, 0.13834]], [0, [56.69692001, -0.002467], [20.1703448, 1.109338], [16.89311889, -4.134563], [14.81117613, 3.441198], [6.02025146, -0.295299], [2.45829434, -0.948212], [1.29773244, 0.104998], [0.73258474, 0.272398], [0.2960966, 0.781279], [0.13350445, 0.403482], [0.05975279, -0.504819], [0.0277617, -0.537516]], [0, [56.69692001, 0.007169], [20.1703448, -2.290439], [16.89311889, 8.576039], [14.81117613, -7.236243], [6.02025146, 1.069217], [2.45829434, 1.904655], [1.29773244, -1.704423], [0.73258474, -0.959586], [0.2960966, 0.398011], [0.13350445, 1.19757], [0.05975279, -0.332252], [0.0277617, -0.640028]], [0, [0.0277617, 1.0]], [0, [0.01289834, 1.0]], [1, [84.11621248, 0.00021], [41.67010486, -0.003354], [20.84027636, 0.054507], [13.1175259, -0.185677], [7.96834211, 0.1136], [4.08681185, 0.286879], [2.29416473, 0.386568], [1.21038981, 0.304256], [0.60503887, 0.104511], [0.23373223, 0.008916], [0.0905483, -0.000333], [0.03498335, 0.000208]], [1, [84.11621248, 4e-06], [41.67010486, 0.000359], [20.84027636, -0.009409], [13.1175259, 0.03575], [7.96834211, -0.025333], [4.08681185, -0.064167], [2.29416473, -0.086609], [1.21038981, -0.086359], [0.60503887, 0.027529], [0.23373223, 0.324015], [0.0905483, 0.541358], [0.03498335, 0.260105]], [1, [84.11621248, -0.000267], [41.67010486, -6.4e-05], [20.84027636, 0.047925], [13.1175259, -0.277144], [7.96834211, 0.331958], [4.08681185, 0.774366], [2.29416473, -0.100864], [1.21038981, -0.807332], [0.60503887, -0.321021], [0.23373223, 0.668842], [0.0905483, 0.367628], [0.03498335, -0.000935]], [1, [84.11621248, 5.7e-05], [41.67010486, -0.001547], [20.84027636, 0.089243], [13.1175259, -0.63532], [7.96834211, 1.278388], [4.08681185, 0.622329], [2.29416473, -1.509876], [1.21038981, -0.580496], [0.60503887, 1.497693], [0.23373223, -0.085087], [0.0905483, -0.662473], [0.03498335, 0.018623]], [1, [0.03498335, 1.0]], [1, [0.01351582, 1.0]], [2, [85.06963135, 0.000306], [37.22826442, -0.00619], [15.61164981, 0.135912], [9.50636668, 0.057336], [5.30208049, 0.240495], [2.49612499, 0.317037], [1.13949453, 0.29791], [0.51100337, 0.208077], [0.230497, 0.090388], [0.11275594, 0.026692]], [2, [85.06963135, -6.7e-05], [37.22826442, 0.005894], [15.61164981, -0.160149], [9.50636668, -0.06449], [5.30208049, -0.378253], [2.49612499, -0.223915], [1.13949453, 0.192556], [0.51100337, 0.40631], [0.230497, 0.288029], [0.11275594, 0.137167]], [2, [85.06963135, 0.000676], [37.22826442, 0.002685], [15.61164981, -0.164508], [9.50636668, -0.124255], [5.30208049, -0.491432], [2.49612499, 0.308336], [1.13949453, 0.656459], [0.51100337, -0.049831], [0.230497, -0.426374], [0.11275594, -0.340335]], [2, [0.11275594, 1.0]], [2, [0.05515864, 1.0]], [3, [5.302569, 1.0]], [3, [1.403579, 1.0]], [3, [0.37152444, 1.0]], [4, [4.659861, 1.0]], [4, [1.23345551, 1.0]]]}
ecp = {'Cu': [10, [[-1, [[], [[19.87662576, 19.0]], [[18.71397328, 13322.8315411], [8.24597653, -143.81933419], [17.99726398, -6835.89401414], [19.50653533, -6413.73731394]], [[9.35936389, 377.6558895]]]], [0, [[], [], [[12.04327682, 217421.85846016], [11.98352277, -215987.47192743], [9.67744501, 1647.53099822], [17.5806873, -5124.79596488], [17.5092588, -963.5691239], [19.80724162, 3071.81011765]], []]], [1, [[], [], [[15.48559732, 189560.54470794], [15.42430413, -181115.65838446], [17.81980355, -1937.67548293], [17.69074392, -2335.92086442], [17.98867265, -8634.52846732], [19.82460345, 4504.58524733]], []]], [2, [[], [], [[10.91448054, -5224.34215851], [14.69969344, -3653.65459704], [11.52370333, 8159.25189768], [19.81153965, -2763.94279097], [18.0197982, 6020.80732635], [14.46480052, -2560.14492979]], []]]]]}
CPU time:         3.37


******** <class 'pyscf.scf.rohf.ROHF'> flags ********
method = ROHF
initial guess = minao
damping factor = 0
level shift factor = 1000.0
DIIS = <class 'pyscf.scf.diis.CDIIS'>
DIIS start cycle = 1
DIIS space = 8
SCF tol = 1e-09
SCF gradient tol = None
max. SCF cycles = 50
direct_scf = True
direct_scf_tol = 1e-13
chkfile to save SCF result = /rc_scratch/bamu3429/tmpYc3I0a
max_memory 4000 MB (current use 105 MB)
num. doubly occ = 9  num. singly occ = 0
Set gradient conv threshold to 3.16228e-05
init E= -196.325207127341
  HOMO = -0.802020651492958  LUMO = 999.762045415243
cycle= 1 E= -196.325207127341  delta_E= -3.69e-13  |g|= 1.13e-05  |ddm|= 7.64e-08
  HOMO = -0.802020650645462  LUMO = -0.237954584708857
Extra cycle  E= -196.325207127356  delta_E= -1.46e-11  |g|= 1.85e-06  |ddm|= 1.13e-05
converged SCF energy = -196.325207127356
**** MO energy ****
                Roothaan           | alpha              | beta
MO #1   energy= -5.54844113828848  | -5.54844113828848  | -5.54844113828848  occ= 2
MO #2   energy= -3.81957055841835  | -3.81957055841835  | -3.81957055841835  occ= 2
MO #3   energy= -3.81957055830366  | -3.81957055830365  | -3.81957055830366  occ= 2
MO #4   energy= -3.81957054830429  | -3.8195705483043   | -3.8195705483043   occ= 2
MO #5   energy= -0.802020665675945 | -0.802020665675943 | -0.802020665675943 occ= 2
MO #6   energy= -0.80202066180483  | -0.802020661804831 | -0.802020661804831 occ= 2
MO #7   energy= -0.802020656389303 | -0.802020656389315 | -0.802020656389315 occ= 2
MO #8   energy= -0.802020656026597 | -0.802020656026594 | -0.802020656026594 occ= 2
MO #9   energy= -0.802020650645462 | -0.80202065064546  | -0.80202065064546  occ= 2
MO #10  energy= -0.237954584708857 | -0.237954584708855 | -0.237954584708855 occ= 0
MO #11  energy= -0.123660647133632 | -0.123660647133631 | -0.123660647133631 occ= 0
MO #12  energy= -0.123660647085841 | -0.123660647085842 | -0.123660647085842 occ= 0
MO #13  energy= -0.12366064348853  | -0.123660643488529 | -0.123660643488529 occ= 0
MO #14  energy= -0.0799735407804062 | -0.0799735407804063 | -0.0799735407804063 occ= 0
MO #15  energy= -0.0494874135931633 | -0.0494874135931617 | -0.0494874135931617 occ= 0
MO #16  energy= -0.0494874135798299 | -0.0494874135798277 | -0.0494874135798277 occ= 0
MO #17  energy= -0.0494874123549271 | -0.0494874123549278 | -0.0494874123549278 occ= 0
MO #18  energy= -0.00776270291428276 | -0.00776270291428298 | -0.00776270291428298 occ= 0
MO #19  energy= -0.00776270288374668 | -0.00776270288374787 | -0.00776270288374787 occ= 0
MO #20  energy= -0.00776269958419107 | -0.00776269958419064 | -0.00776269958419065 occ= 0
MO #21  energy= -0.00776269949288981 | -0.00776269949289293 | -0.00776269949289293 occ= 0
MO #22  energy= -0.00776269812403226 | -0.00776269812403297 | -0.00776269812403296 occ= 0
MO #23  energy= 0.0630457112272388 | 0.0630457112272383 | 0.0630457112272378 occ= 0
MO #24  energy= 0.119508350422914  | 0.119508350422915  | 0.119508350422915  occ= 0
MO #25  energy= 0.119508350456475  | 0.119508350456476  | 0.119508350456476  occ= 0
MO #26  energy= 0.119508354121789  | 0.119508354121792  | 0.119508354121792  occ= 0
MO #27  energy= 0.27443156360361   | 0.274431563603608  | 0.274431563603608  occ= 0
MO #28  energy= 0.274431563745257  | 0.274431563745256  | 0.274431563745257  occ= 0
MO #29  energy= 0.274431570610814  | 0.274431570610819  | 0.274431570610819  occ= 0
MO #30  energy= 0.274431571016843  | 0.274431571016846  | 0.274431571016846  occ= 0
MO #31  energy= 0.274431574578139  | 0.274431574578133  | 0.274431574578133  occ= 0
MO #32  energy= 0.832849909320321  | 0.832849909320322  | 0.832849909320321  occ= 0
MO #33  energy= 1.10819577911013   | 1.10819577911013   | 1.10819577911013   occ= 0
MO #34  energy= 1.10819577911089   | 1.10819577911089   | 1.10819577911089   occ= 0
MO #35  energy= 1.10819579442706   | 1.10819579442706   | 1.10819579442706   occ= 0
MO #36  energy= 1.10819579449321   | 1.10819579449321   | 1.10819579449321   occ= 0
MO #37  energy= 1.10819580290863   | 1.10819580290863   | 1.10819580290863   occ= 0
MO #38  energy= 1.10819580294026   | 1.10819580294026   | 1.10819580294026   occ= 0
MO #39  energy= 1.1081958056204    | 1.10819580562041   | 1.10819580562041   occ= 0
MO #40  energy= 1.55967853942658   | 1.55967853942658   | 1.55967853942658   occ= 0
MO #41  energy= 1.55967853988081   | 1.55967853988082   | 1.55967853988082   occ= 0
MO #42  energy= 1.55967854897354   | 1.55967854897354   | 1.55967854897354   occ= 0
MO #43  energy= 1.55967855029204   | 1.55967855029204   | 1.55967855029204   occ= 0
MO #44  energy= 1.55967855751647   | 1.55967855751647   | 1.55967855751647   occ= 0
MO #45  energy= 2.4195827034609    | 2.4195827034609    | 2.4195827034609    occ= 0
MO #46  energy= 2.4195827036621    | 2.41958270366211   | 2.41958270366211   occ= 0
MO #47  energy= 2.41958271967974   | 2.41958271967974   | 2.41958271967974   occ= 0
MO #48  energy= 4.49305816018642   | 4.49305816018642   | 4.49305816018642   occ= 0
MO #49  energy= 4.49305816018648   | 4.49305816018648   | 4.49305816018648   occ= 0
MO #50  energy= 4.49305817306529   | 4.49305817306529   | 4.49305817306529   occ= 0
MO #51  energy= 4.49305817310673   | 4.49305817310673   | 4.49305817310673   occ= 0
MO #52  energy= 4.49305818117334   | 4.49305818117333   | 4.49305818117333   occ= 0
MO #53  energy= 4.49305818147088   | 4.49305818147087   | 4.49305818147087   occ= 0
MO #54  energy= 4.49305818415132   | 4.49305818415132   | 4.49305818415132   occ= 0
MO #55  energy= 5.43439274750827   | 5.43439274750827   | 5.43439274750827   occ= 0
MO #56  energy= 5.43439274750828   | 5.43439274750828   | 5.43439274750828   occ= 0
MO #57  energy= 5.43439276436211   | 5.43439276436212   | 5.43439276436212   occ= 0
MO #58  energy= 5.43439276436223   | 5.43439276436222   | 5.43439276436222   occ= 0
MO #59  energy= 5.4343927763358    | 5.4343927763358    | 5.4343927763358    occ= 0
MO #60  energy= 5.43439277634573   | 5.43439277634572   | 5.43439277634572   occ= 0
MO #61  energy= 5.43439278336999   | 5.43439278336998   | 5.43439278336998   occ= 0
MO #62  energy= 5.434392783644     | 5.43439278364401   | 5.43439278364401   occ= 0
MO #63  energy= 5.43439278589396   | 5.43439278589395   | 5.43439278589395   occ= 0
MO #64  energy= 5.95713920195867   | 5.95713920195868   | 5.95713920195868   occ= 0
MO #65  energy= 6.68826751468018   | 6.68826751468017   | 6.68826751468017   occ= 0
MO #66  energy= 6.68826751587384   | 6.68826751587385   | 6.68826751587385   occ= 0
MO #67  energy= 6.68826751681751   | 6.68826751681752   | 6.68826751681752   occ= 0
MO #68  energy= 6.68826751706624   | 6.68826751706624   | 6.68826751706624   occ= 0
MO #69  energy= 6.68826751901299   | 6.68826751901298   | 6.68826751901298   occ= 0
MO #70  energy= 10.3605870910151   | 10.3605870910151   | 10.3605870910151   occ= 0
MO #71  energy= 10.3605870912431   | 10.3605870912431   | 10.3605870912431   occ= 0
MO #72  energy= 10.3605870965831   | 10.3605870965831   | 10.3605870965831   occ= 0
MO #73  energy= 15.0267918950386   | 15.0267918950386   | 15.0267918950386   occ= 0
MO #74  energy= 15.0267918956115   | 15.0267918956115   | 15.0267918956115   occ= 0
MO #75  energy= 15.0267918959264   | 15.0267918959264   | 15.0267918959264   occ= 0
MO #76  energy= 15.0267918986439   | 15.0267918986439   | 15.0267918986439   occ= 0
MO #77  energy= 15.0267918987713   | 15.0267918987713   | 15.0267918987713   occ= 0
MO #78  energy= 15.026791906022    | 15.026791906022    | 15.026791906022    occ= 0
MO #79  energy= 15.0267919060264   | 15.0267919060264   | 15.0267919060264   occ= 0
MO #80  energy= 20.0156012491925   | 20.0156012491925   | 20.0156012491925   occ= 0
MO #81  energy= 20.0156012496584   | 20.0156012496584   | 20.0156012496584   occ= 0
MO #82  energy= 20.0156012497001   | 20.0156012497001   | 20.0156012497001   occ= 0
MO #83  energy= 20.0156012510274   | 20.0156012510274   | 20.0156012510274   occ= 0
MO #84  energy= 20.0156012510749   | 20.0156012510749   | 20.0156012510749   occ= 0
MO #85  energy= 20.0156012530423   | 20.0156012530422   | 20.0156012530422   occ= 0
MO #86  energy= 20.0156012530439   | 20.0156012530439   | 20.0156012530439   occ= 0
MO #87  energy= 20.0156012551928   | 20.0156012551928   | 20.0156012551928   occ= 0
MO #88  energy= 20.0156012551928   | 20.0156012551928   | 20.0156012551928   occ= 0
 ** Mulliken pop on meta-lowdin orthogonal AOs  **
 ** Mulliken pop  **
pop of  0Cu 3s        1.99996
pop of  0Cu 4s        0.00000
pop of  0Cu 5s        0.00003
pop of  0Cu 6s        0.00001
pop of  0Cu 7s        0.00000
pop of  0Cu 8s        0.00000
pop of  0Cu 3px       1.99994
pop of  0Cu 3py       1.99994
pop of  0Cu 3pz       1.99994
pop of  0Cu 4px       0.00004
pop of  0Cu 4py       0.00004
pop of  0Cu 4pz       0.00004
pop of  0Cu 5px       0.00002
pop of  0Cu 5py       0.00002
pop of  0Cu 5pz       0.00002
pop of  0Cu 6px       0.00001
pop of  0Cu 6py       0.00001
pop of  0Cu 6pz       0.00001
pop of  0Cu 7px       0.00000
pop of  0Cu 7py       0.00000
pop of  0Cu 7pz       0.00000
pop of  0Cu 8px       0.00000
pop of  0Cu 8py       0.00000
pop of  0Cu 8pz       0.00000
pop of  0Cu 3dxy      1.99909
pop of  0Cu 3dyz      1.99909
pop of  0Cu 3dz^2     1.99909
pop of  0Cu 3dxz      1.99909
pop of  0Cu 3dx2-y2    1.99909
pop of  0Cu 4dxy      0.00087
pop of  0Cu 4dyz      0.00087
pop of  0Cu 4dz^2     0.00087
pop of  0Cu 4dxz      0.00087
pop of  0Cu 4dx2-y2    0.00087
pop of  0Cu 5dxy      0.00001
pop of  0Cu 5dyz      0.00001
pop of  0Cu 5dz^2     0.00001
pop of  0Cu 5dxz      0.00001
pop of  0Cu 5dx2-y2    0.00001
pop of  0Cu 6dxy      0.00003
pop of  0Cu 6dyz      0.00003
pop of  0Cu 6dz^2     0.00003
pop of  0Cu 6dxz      0.00003
pop of  0Cu 6dx2-y2    0.00003
pop of  0Cu 7dxy      0.00000
pop of  0Cu 7dyz      0.00000
pop of  0Cu 7dz^2     0.00000
pop of  0Cu 7dxz      0.00000
pop of  0Cu 7dx2-y2    0.00000
pop of  0Cu 4fy^3     0.00000
pop of  0Cu 4fxyz     0.00000
pop of  0Cu 4fyz^2    0.00000
pop of  0Cu 4fz^3     0.00000
pop of  0Cu 4fxz^2    0.00000
pop of  0Cu 4fzx^2    0.00000
pop of  0Cu 4fx^3     0.00000
pop of  0Cu 5fy^3     0.00000
pop of  0Cu 5fxyz     0.00000
pop of  0Cu 5fyz^2    0.00000
pop of  0Cu 5fz^3     0.00000
pop of  0Cu 5fxz^2    0.00000
pop of  0Cu 5fzx^2    0.00000
pop of  0Cu 5fx^3     0.00000
pop of  0Cu 6fy^3     0.00000
pop of  0Cu 6fxyz     0.00000
pop of  0Cu 6fyz^2    0.00000
pop of  0Cu 6fz^3     0.00000
pop of  0Cu 6fxz^2    0.00000
pop of  0Cu 6fzx^2    0.00000
pop of  0Cu 6fx^3     0.00000
pop of  0Cu 5g-4      0.00000
pop of  0Cu 5g-3      0.00000
pop of  0Cu 5g-2      0.00000
pop of  0Cu 5g-1      0.00000
pop of  0Cu 5g 0      0.00000
pop of  0Cu 5g 1      0.00000
pop of  0Cu 5g 2      0.00000
pop of  0Cu 5g 3      0.00000
pop of  0Cu 5g 4      0.00000
pop of  0Cu 6g-4      0.00000
pop of  0Cu 6g-3      0.00000
pop of  0Cu 6g-2      0.00000
pop of  0Cu 6g-1      0.00000
pop of  0Cu 6g 0      0.00000
pop of  0Cu 6g 1      0.00000
pop of  0Cu 6g 2      0.00000
pop of  0Cu 6g 3      0.00000
pop of  0Cu 6g 4      0.00000
 ** Mulliken atomic charges  **
charge of  0Cu =      1.00000

******** <class 'pyscf.mcscf.mc1step.CASSCF'> flags ********
CAS (5e+5e, 6o), ncore = 4, nvir = 78
max_cycle_macro = 50
max_cycle_micro = 4
conv_tol = 1e-07
conv_tol_grad = None
orbital rotation max_stepsize = 0.02
augmented hessian ah_max_cycle = 30
augmented hessian ah_conv_tol = 1e-12
augmented hessian ah_linear dependence = 1e-14
augmented hessian ah_level shift = 0
augmented hessian ah_start_tol = 2.5
augmented hessian ah_start_cycle = 3
augmented hessian ah_grad_trust_region = 3
kf_trust_region = 3
kf_interval = 4
ci_response_space = 4
ci_grad_trust_region = 3
with_dep4 0
natorb = False
canonicalization = True
sorting_mo_energy = False
chkfile = ./scratch/144041/tmpzx3RSK
max_memory 4000 MB (current use 202 MB)
internal_rotation = False

******** SHCI flags ********
executable             = /home/bamu3429/softwares/dice/Dice
mpiprefix              = srun -n20
scratchDirectory       = ./scratch/144041
integralFile           = ./FCIDUMP
configFile             = ./input.dat
outputFile             = ./output.dat
maxIter                = 6
sweep_iter             = []
sweep_epsilon          = []
nPTiter                = 0
Stochastic             = True
fullrestart            = False
restart                = False
num_thrds              = 12
memory                 = None

CASCI E = -196.325391084303  S^2 = 0.0000000
Set conv_tol_grad to 0.000316228
macro iter 1 (21 JK  4 micro), CASSCF E = -196.326754447998  dE = -0.0013633637  S^2 = 0.0000000
               |grad[o]|=0.000782  |grad[c]|= None  |ddm|=0.00169
macro iter 2 (21 JK  4 micro), CASSCF E = -196.32776884402  dE = -0.001014396  S^2 = 0.0000000
               |grad[o]|=0.00228  |grad[c]|= None  |ddm|=0.00108
macro iter 3 (6 JK  2 micro), CASSCF E = -196.327770574675  dE = -1.7306553e-06  S^2 = 0.0000000
               |grad[o]|=0.000545  |grad[c]|= None  |ddm|=0.00012
macro iter 4 (1 JK  1 micro), CASSCF E = -196.327770574675  dE = 0  S^2 = 0.0000000
               |grad[o]|=2.25e-05  |grad[c]|= None  |ddm|=    0
1-step CASSCF converged in 4 macro (49 JK 11 micro) steps
CASSCF canonicalization
CASSCF energy = -196.327770574675


--------------------------------------------------
                 ICMPSPT CALCULATION              
--------------------------------------------------

Perturbation type: MRLCC
With fully internally contracted scheme
With third order correction

Preparing necessary RDMs
......production of RDMs took       2.49 sec
Reading binary 4RDM from DICE
......reading the RDM took          1.08 sec

(GOOD) Trace 4RDM:   5040.0 =   10*    9*    8*    7
(GOOD) Trace 3RDM:    720.0 =   10*    9*    8
(GOOD) Trace 2RDM:     90.0 =   10*    9
(GOOD) Trace 1RDM:     10.0 =   10

Producing the integrals
......production of INT took      86.54 sec

Energy_core = -146.24320321
Energy      = -196.32777057

WARNING: Have to use natural orbitals from CAASCF
         offdiagonal elements:    1.68149284

Basic ingredients written to int/
......savings of INGREDIENTS took      17.77 sec

Second-order:
perturber CCVV --        -0.097758331
perturber CCAV --        -0.010808289
perturber ACVV --        -0.297340495
perturber CCAA --        -0.000389489
perturber AAVV --        -0.418958105
perturber CAAV --        -0.032920768
perturber AAAV --        -0.007098505
perturber AAAC --        -0.000000000
Total:                   -0.865273980

Third-order:              0.001865674

Total PT       --        -0.863408306

