 &FCI NORB=6 ,NELEC=6 ,MS2=6,
  ORBSYM=1,1,1,1,1,1,
  ISYM=1,
 &END
  9.988103572933e-01    1  1  1  1
  1.811671818499e-04    2  1  1  1
  7.728543880045e-04    2  1  2  1
  9.172786202398e-02    2  2  1  1
 -3.136873935718e-05    2  2  2  1
  7.197340369372e-02    2  2  2  2
  7.023114531283e-04    3  1  1  1
  1.671599427152e-03    3  1  2  1
 -1.029008226559e-04    3  1  2  2
  1.161042962066e-02    3  1  3  1
  1.988153342036e-02    3  2  1  1
 -1.031603556578e-04    3  2  2  1
 -2.898153565859e-04    3  2  2  2
 -3.159020511065e-04    3  2  3  1
  3.905907024743e-03    3  2  3  2
  1.896676815838e-01    3  3  1  1
 -3.359327783439e-04    3  3  2  1
  6.420643701297e-02    3  3  2  2
 -1.753610393851e-03    3  3  3  1
  2.830604539651e-03    3  3  3  2
  8.391781581694e-02    3  3  3  3
 -2.685679990637e-04    4  1  1  1
 -7.733515819691e-04    4  1  2  1
  6.878086066569e-05    4  1  2  2
 -3.171591033466e-03    4  1  3  1
  1.597898603757e-04    4  1  3  2
  5.575524651372e-04    4  1  3  3
  1.263631333499e-03    4  1  4  1
 -1.040188428587e-02    4  2  1  1
  5.505517696697e-05    4  2  2  1
 -1.016201324166e-04    4  2  2  2
  9.859668271132e-05    4  2  3  1
  1.153209422769e-04    4  2  3  2
 -1.875953067552e-03    4  2  3  3
 -7.554201709988e-05    4  2  4  1
  4.373500194144e-03    4  2  4  2
 -3.298706139391e-02    4  3  1  1
  1.550379077757e-04    4  3  2  1
 -5.371402415011e-04    4  3  2  2
  5.228491036159e-04    4  3  3  1
 -9.550645456408e-04    4  3  3  2
 -4.602424326510e-03    4  3  3  3
 -2.032614447066e-04    4  3  4  1
  1.812185399828e-04    4  3  4  2
  4.864488365430e-03    4  3  4  3
  9.484785309719e-02    4  4  1  1
 -6.867033276847e-05    4  4  2  1
  6.338792808241e-02    4  4  2  2
 -1.515991863335e-04    4  4  3  1
  5.352919225177e-04    4  4  3  2
  6.468438497399e-02    4  4  3  3
  8.508450053395e-05    4  4  4  1
 -1.474014080490e-04    4  4  4  2
  2.240267911501e-04    4  4  4  3
  7.156693986827e-02    4  4  4  4
  1.383390845782e-02    5  1  1  1
  3.235814530388e-04    5  1  2  1
  1.801923118447e-05    5  1  2  2
  2.251841195218e-03    5  1  3  1
  6.494938261566e-04    5  1  3  2
  4.380690358080e-03    5  1  3  3
 -7.633727468542e-04    5  1  4  1
 -1.432646032597e-04    5  1  4  2
 -1.251102107622e-03    5  1  4  3
  3.727745027883e-04    5  1  4  4
  5.459496001685e-02    5  1  5  1
  1.436744006691e-04    5  2  1  1
 -1.649556740282e-04    5  2  2  1
  3.471776536583e-05    5  2  2  2
  5.879345813843e-04    5  2  3  1
  2.404620234598e-05    5  2  3  2
  5.104450402490e-05    5  2  3  3
 -1.103867163515e-04    5  2  4  1
 -4.314735489199e-05    5  2  4  2
 -6.956814118146e-05    5  2  4  3
  1.252628686202e-04    5  2  4  4
  9.577319882976e-04    5  2  5  1
  5.679747544250e-04    5  2  5  2
  4.184954328524e-03    5  3  1  1
  5.372216129744e-04    5  3  2  1
  5.440111101490e-05    5  3  2  2
  4.266331397966e-03    5  3  3  1
  8.638902019623e-06    5  3  3  2
  1.823322904623e-04    5  3  3  3
 -1.264637682593e-03    5  3  4  1
 -9.426172186935e-05    5  3  4  2
 -4.041561093646e-05    5  3  4  3
  1.481315019798e-04    5  3  4  4
  6.816261488884e-03    5  3  5  1
  8.414763449109e-04    5  3  5  2
  4.017608965634e-03    5  3  5  3
 -2.398556423022e-03    5  4  1  1
 -3.786406623768e-05    5  4  2  1
 -1.294908316421e-04    5  4  2  2
 -1.221632896483e-03    5  4  3  1
 -1.090378554322e-04    5  4  3  2
 -3.090418050979e-04    5  4  3  3
  2.403986441970e-04    5  4  4  1
  8.704701726175e-05    5  4  4  2
  1.106683325526e-04    5  4  4  3
 -1.375815455679e-04    5  4  4  4
 -1.780847472303e-03    5  4  5  1
 -4.683492695637e-04    5  4  5  2
 -1.243261019149e-03    5  4  5  3
  6.230977821526e-04    5  4  5  4
  7.943890020218e-01    5  5  1  1
  2.608981959987e-04    5  5  2  1
  9.074897590840e-02    5  5  2  2
  5.089471126134e-03    5  5  3  1
  1.704257712057e-02    5  5  3  2
  1.702518182813e-01    5  5  3  3
 -1.343033786792e-03    5  5  4  1
 -9.307045129038e-03    5  5  4  2
 -2.755821378316e-02    5  5  4  3
  9.293354040476e-02    5  5  4  4
 -4.919096513847e-02    5  5  5  1
 -2.522806965366e-04    5  5  5  2
 -1.975997529291e-03    5  5  5  3
 -1.077250850326e-03    5  5  5  4
  8.819542132290e-01    5  5  5  5
  5.050198587158e-03    6  1  1  1
  3.560927121579e-03    6  1  2  1
 -2.613234154039e-04    6  1  2  2
  2.727651257163e-02    6  1  3  1
 -6.933516423341e-04    6  1  3  2
 -4.004510532659e-03    6  1  3  3
 -7.178299386459e-03    6  1  4  1
  1.905208386994e-04    6  1  4  2
  1.136085934043e-03    6  1  4  3
 -3.442728743047e-04    6  1  4  4
  4.821880444338e-03    6  1  5  1
  1.610518030757e-03    6  1  5  2
  1.004821801173e-02    6  1  5  3
 -2.987737766448e-03    6  1  5  4
  1.048146233390e-02    6  1  5  5
  6.500118128416e-02    6  1  6  1
  4.120444073933e-02    6  2  1  1
 -2.341352137685e-04    6  2  2  1
  1.698100403573e-03    6  2  2  2
 -6.989564609826e-04    6  2  3  1
 -1.433497300757e-04    6  2  3  2
  7.080333462505e-03    6  2  3  3
  3.309054565494e-04    6  2  4  1
 -2.462510652248e-04    6  2  4  2
 -1.804789085021e-03    6  2  4  3
  2.192076855985e-03    6  2  4  4
  1.543973085066e-03    6  2  5  1
  8.241595537536e-05    6  2  5  2
  4.376774613154e-05    6  2  5  3
 -2.043954778378e-04    6  2  5  4
  3.498389400457e-02    6  2  5  5
 -1.531021166869e-03    6  2  6  1
  3.070878674524e-03    6  2  6  2
  2.742414380865e-01    6  3  1  1
 -7.635325212459e-04    6  3  2  1
  1.183331489839e-02    6  3  2  2
 -4.139939545382e-03    6  3  3  1
  6.658623688419e-03    6  3  3  2
  4.203477573790e-02    6  3  3  3
  1.252581348303e-03    6  3  4  1
 -3.406638366934e-03    6  3  4  2
 -1.079764182927e-02    6  3  4  3
  1.291636592643e-02    6  3  4  4
  1.012676114897e-02    6  3  5  1
 -2.082557402886e-05    6  3  5  2
  2.910891123520e-04    6  3  5  3
 -4.985512697549e-04    6  3  5  4
  2.285594716665e-01    6  3  5  5
 -9.492178355536e-03    6  3  6  1
  1.395646593055e-02    6  3  6  2
  9.139780666148e-02    6  3  6  3
 -7.631324676833e-02    6  4  1  1
  3.375244001675e-04    6  4  2  1
 -3.430415752201e-03    6  4  2  2
  1.213328848808e-03    6  4  3  1
 -1.994420848028e-03    6  4  3  2
 -1.266412575681e-02    6  4  3  3
 -4.397226033297e-04    6  4  4  1
  8.231642662037e-04    6  4  4  2
  1.865243969435e-03    6  4  4  3
 -3.070745235195e-03    6  4  4  4
 -2.941068754461e-03    6  4  5  1
 -1.274638462273e-04    6  4  5  2
 -1.109176155854e-04    6  4  5  3
  2.374411720854e-04    6  4  5  4
 -6.392008969899e-02    6  4  5  5
  2.679187881311e-03    6  4  6  1
 -4.024295096052e-03    6  4  6  2
 -2.543951861761e-02    6  4  6  3
  7.946341884292e-03    6  4  6  4
  5.127187843901e-03    6  5  1  1
  1.464799977700e-03    6  5  2  1
 -1.618716472690e-04    6  5  2  2
  9.913568321559e-03    6  5  3  1
 -8.980331485595e-05    6  5  3  2
 -2.374152676002e-04    6  5  3  3
 -3.000098815371e-03    6  5  4  1
 -1.007578285808e-04    6  5  4  2
  9.614722357949e-05    6  5  4  3
 -1.835299221300e-05    6  5  4  4
  1.569986871391e-02    6  5  5  1
  1.551505481767e-03    6  5  5  2
  8.973724136001e-03    6  5  5  3
 -2.573928990514e-03    6  5  5  4
 -8.477243466709e-03    6  5  5  5
  2.316512431097e-02    6  5  6  1
 -1.912149394492e-04    6  5  6  2
 -6.383538568368e-04    6  5  6  3
  2.492635277450e-04    6  5  6  4
  2.058499156515e-02    6  5  6  5
  7.081530570805e-01    6  6  1  1
 -1.723883679849e-03    6  6  2  1
  8.537512301495e-02    6  6  2  2
 -9.759713490246e-03    6  6  3  1
  1.592462463228e-02    6  6  3  2
  1.623818612598e-01    6  6  3  3
  2.852840635096e-03    6  6  4  1
 -8.080955556916e-03    6  6  4  2
 -2.608537041143e-02    6  6  4  3
  8.786280571261e-02    6  6  4  4
  2.339632824123e-02    6  6  5  1
 -1.244510029829e-04    6  6  5  2
  6.360070169605e-04    6  6  5  3
 -1.049971223552e-03    6  6  5  4
  6.001727391065e-01    6  6  5  5
 -2.246066494293e-02    6  6  6  1
  3.269336667418e-02    6  6  6  2
  2.139036036757e-01    6  6  6  3
 -5.988974669154e-02    6  6  6  4
 -1.547717181702e-03    6  6  6  5
  5.653959247506e-01    6  6  6  6
 -7.483852270681e+00    1  1  0  0
  9.371557732999e-03    2  1  0  0
 -5.283108339983e-01    2  2  0  0
  4.419292525364e-02    3  1  0  0
 -1.016142418561e-01    3  2  0  0
 -1.010392561340e+00    3  3  0  0
 -1.432900162109e-02    4  1  0  0
  5.356376855417e-02    4  2  0  0
  1.653664550838e-01    4  3  0  0
 -5.430171304749e-01    4  4  0  0
  2.193343374170e-01    5  1  0  0
 -2.220047683784e-03    5  2  0  0
 -1.339425348980e-02    5  3  0  0
  1.210104509846e-02    5  4  0  0
 -4.532730454965e+00    5  5  0  0
  1.019409862906e-01    6  1  0  0
 -2.169157713379e-01    6  2  0  0
 -1.394560325868e+00    6  3  0  0
  3.926645040769e-01    6  4  0  0
 -4.823271186126e-03    6  5  0  0
 -3.626245380957e+00    6  6  0  0
    -65.126304180126   0  0  0  0
