 &FCI NORB=9 ,NELEC=8 ,MS2=2,
  ORBSYM=1,1,1,1,1,1,1,1,1,
  ISYM=1,
 &END
  6.494108363956e-01    1  1  1  1
 -2.596046265126e-08    2  1  1  1
  2.909300273026e-02    2  1  2  1
  5.845226146701e-01    2  2  1  1
 -2.358515756855e-08    2  2  2  1
  6.409218082170e-01    2  2  2  2
 -2.711029522044e-08    3  1  1  1
 -2.094298250813e-08    3  1  2  2
  2.909300272973e-02    3  1  3  1
 -1.460410163637e-09    3  2  2  1
  3.652297742010e-08    3  2  2  2
 -9.985873889671e-10    3  2  3  1
  2.867978822056e-02    3  2  3  2
  5.845226146720e-01    3  3  1  1
 -2.129726620854e-08    3  3  2  1
  5.835613688005e-01    3  3  2  2
 -2.449123658205e-08    3  3  3  1
 -3.652157064093e-08    3  3  3  2
  6.409218082218e-01    3  3  3  3
  2.246124045736e-02    4  1  1  1
 -2.509667718304e-09    4  1  2  1
  1.639110685627e-02    4  1  2  2
 -4.288251460631e-09    4  1  3  1
  1.639110685670e-02    4  1  3  3
  4.834365046923e-03    4  1  4  1
 -1.474453709319e-08    4  2  1  1
 -6.457358658538e-04    4  2  2  1
 -1.270691069538e-08    4  2  2  2
  1.985263627132e-06    4  2  3  1
 -2.364445925903e-10    4  2  3  2
 -1.230656203859e-08    4  2  3  3
 -1.483765741161e-09    4  2  4  1
  1.889435791469e-03    4  2  4  2
 -2.057701368772e-08    4  3  1  1
 -1.985263823639e-06    4  3  2  1
 -1.619747430834e-08    4  3  2  2
 -6.457358656908e-04    4  3  3  1
 -3.468687843515e-10    4  3  3  2
 -1.603428890932e-08    4  3  3  3
 -2.254213539130e-09    4  3  4  1
  1.889435791455e-03    4  3  4  3
  2.310086724005e-01    4  4  1  1
 -5.295779163427e-09    4  4  2  1
  2.146755186991e-01    4  4  2  2
 -9.402961444169e-09    4  4  3  1
  2.146755186992e-01    4  4  3  3
  3.964180336847e-03    4  4  4  1
 -4.207104631247e-09    4  4  4  2
 -6.130490116633e-09    4  4  4  3
  2.652093633479e-01    4  4  4  4
 -1.723690960977e-11    5  1  1  1
  1.322090025070e-10    5  1  2  1
 -2.434883684330e-04    5  1  2  2
 -2.408587858286e-09    5  1  3  1
 -2.461719405804e-05    5  1  3  2
  2.434883405921e-04    5  1  3  3
 -1.201073153588e-10    5  1  4  2
  3.522432605419e-10    5  1  4  3
 -1.920161896434e-12    5  1  4  4
  7.525540174560e-03    5  1  5  1
 -2.102814737816e-09    5  2  1  1
  1.866818127799e-03    5  2  2  1
 -4.912860635115e-09    5  2  2  2
  1.896231148971e-04    5  2  3  1
 -3.105968076924e-09    5  2  3  2
 -4.417628129128e-09    5  2  3  3
 -9.502337968543e-11    5  2  4  1
 -6.268047556180e-04    5  2  4  2
 -6.476849819271e-05    5  2  4  3
  2.004831033993e-09    5  2  4  4
 -3.332511453107e-10    5  2  5  1
  4.646563484515e-03    5  2  5  2
 -1.924475498439e-08    5  3  1  1
  1.896231150380e-04    5  3  2  1
 -2.293263001167e-08    5  3  2  2
 -1.866818128391e-03    5  3  3  1
 -2.193516996578e-10    5  3  3  2
 -2.555237361204e-08    5  3  3  3
  1.364936798068e-09    5  3  4  1
 -6.476849789956e-05    5  3  4  2
  6.268047550312e-04    5  3  4  3
  9.031570791321e-09    5  3  4  4
 -8.807740364792e-10    5  3  5  1
  4.646563483201e-03    5  3  5  3
 -1.422758258175e-11    5  4  1  1
 -7.346022745260e-10    5  4  2  1
 -2.346852812128e-03    5  4  2  2
  1.302544726056e-09    5  4  3  1
 -2.367521096804e-04    5  4  3  2
  2.346852786569e-03    5  4  3  3
 -1.467404925771e-12    5  4  4  1
  2.173194061599e-10    5  4  4  2
  4.103465493881e-10    5  4  4  3
 -3.304363817087e-12    5  4  4  4
  2.878685477169e-03    5  4  5  1
 -1.517291539371e-09    5  4  5  2
 -1.938913594087e-09    5  4  5  3
  1.072008726266e-02    5  4  5  4
  3.806637077093e-01    5  5  1  1
 -1.159518933315e-08    5  5  2  1
  3.311253101485e-01    5  5  2  2
 -2.392019123422e-08    5  5  3  1
  3.311253101451e-01    5  5  3  3
  2.563418750823e-02    5  5  4  1
 -1.657664423239e-08    5  5  4  2
 -2.424610381291e-08    5  5  4  3
  3.143927317642e-01    5  5  4  4
 -3.560617061100e-12    5  5  5  1
  5.027703531987e-09    5  5  5  2
  2.770152325267e-08    5  5  5  3
 -2.426337357698e-11    5  5  5  4
  6.431705070273e-01    5  5  5  5
 -1.286741931525e-07    6  1  1  1
  1.055942343211e-03    6  1  2  1
 -1.161607017725e-07    6  1  2  2
 -1.075752200582e-02    6  1  3  1
  1.247663314898e-09    6  1  3  2
 -1.152234097830e-07    6  1  3  3
 -4.160459114117e-09    6  1  4  1
  4.730835137627e-05    6  1  4  2
 -5.057911301396e-04    6  1  4  3
  1.718667040517e-09    6  1  4  4
  9.351989255053e-10    6  1  5  1
  6.892530022002e-07    6  1  5  2
 -1.801100593907e-03    6  1  5  3
  8.841835326763e-10    6  1  5  4
  6.272771784320e-09    6  1  5  5
  1.359764229362e-02    6  1  6  1
  1.327151500990e-02    6  2  1  1
 -7.601169672681e-09    6  2  2  1
  1.736666431705e-02    6  2  2  2
  1.800726311227e-09    6  2  3  1
 -1.166856590553e-02    6  2  3  2
  1.505894329893e-02    6  2  3  3
 -1.094394391456e-04    6  2  4  1
 -7.066403721155e-10    6  2  4  2
 -1.813885199937e-10    6  2  4  3
 -3.039801255103e-03    6  2  4  4
 -2.132383669917e-06    6  2  5  1
  1.103988854937e-09    6  2  5  2
 -1.385858286602e-09    6  2  5  3
 -7.501654587998e-06    6  2  5  4
 -7.485935108689e-03    6  2  5  5
 -9.731995294971e-09    6  2  6  1
  1.398118803442e-02    6  2  6  2
 -1.364329903745e-01    6  3  1  1
  9.266177859507e-09    6  3  2  1
 -1.544472117092e-01    6  3  2  2
 -3.943623703582e-10    6  3  3  1
  1.153581612349e-03    6  3  3  2
 -1.777792738253e-01    6  3  3  3
  1.002814619377e-03    6  3  4  1
 -5.393815216220e-10    6  3  4  2
 -2.456229695352e-09    6  3  4  3
  3.052268964167e-02    6  3  4  4
  1.406000640692e-03    6  3  5  1
  3.704560248399e-09    6  3  5  2
  2.325083708494e-08    6  3  5  3
  2.287848790064e-03    6  3  5  4
  7.518144393694e-02    6  3  5  5
  8.574091003875e-08    6  3  6  1
 -1.339828371311e-02    6  3  6  2
  1.497709002161e-01    6  3  6  3
 -3.690804306236e-08    6  4  1  1
  2.073061695568e-04    6  4  2  1
 -2.986252209210e-08    6  4  2  2
 -2.149404761617e-03    6  4  3  1
 -1.941345249259e-10    6  4  3  2
 -2.899817797250e-08    6  4  3  3
 -2.398249870110e-09    6  4  4  1
 -2.933760077708e-04    6  4  4  2
  2.951112475746e-03    6  4  4  3
 -1.239586796617e-08    6  4  4  4
 -5.868494526567e-11    6  4  5  1
 -4.136651640827e-06    6  4  5  2
  8.889793546294e-04    6  4  5  3
 -1.341074929208e-09    6  4  5  4
 -4.289445688106e-08    6  4  5  5
 -7.813609934041e-05    6  4  6  1
 -4.790810182383e-10    6  4  6  2
 -4.785392479653e-09    6  4  6  3
  5.879356805860e-03    6  4  6  4
  1.216084293431e-08    6  5  1  1
  4.351549034668e-06    6  5  2  1
  1.494557199619e-08    6  5  2  2
 -3.298614679601e-03    6  5  3  1
  7.818018345607e-10    6  5  3  2
  1.970699775246e-08    6  5  3  3
  9.841537163180e-10    6  5  4  1
 -4.038208613489e-06    6  5  4  2
  1.267453411792e-03    6  5  4  3
 -2.028445420709e-09    6  5  4  4
  2.132392255278e-09    6  5  5  1
 -7.061666148873e-04    6  5  5  2
  7.134127087486e-03    6  5  5  3
 -2.648117434315e-09    6  5  5  4
 -2.899564383143e-09    6  5  5  5
 -2.191704931848e-03    6  5  6  1
  1.070316028182e-09    6  5  6  2
 -1.198048191302e-08    6  5  6  3
  1.877223464038e-03    6  5  6  4
  1.530289880998e-02    6  5  6  5
  5.073576416834e-01    6  6  1  1
 -2.283636684085e-08    6  6  2  1
  4.776366309574e-01    6  6  2  2
 -1.282607371867e-09    6  6  3  1
 -3.212398546464e-03    6  6  3  2
  5.102978989477e-01    6  6  3  3
  2.239625784638e-02    6  6  4  1
 -1.455224179194e-08    6  6  4  2
 -2.307995011417e-08    6  6  4  3
  2.636960299811e-01    6  6  4  4
  3.351879387672e-03    6  6  5  1
 -8.146866817940e-10    6  6  5  2
 -6.084762842624e-09    6  6  5  3
  4.511447663906e-03    6  6  5  4
  4.631366115012e-01    6  6  5  5
 -7.942004789387e-08    6  6  6  1
  6.162286669339e-03    6  6  6  2
 -6.438008621030e-02    6  6  6  3
 -4.261592458434e-08    6  6  6  4
  5.047424694912e-09    6  6  6  5
  5.199790191542e-01    6  6  6  6
 -7.803626103636e-08    7  1  1  1
 -1.075752200504e-02    7  1  2  1
 -6.817465485774e-08    7  1  2  2
 -1.055942343396e-03    7  1  3  1
  7.348227050187e-10    7  1  3  2
 -7.051546512806e-08    7  1  3  3
 -2.332340061011e-09    7  1  4  1
 -5.057911303699e-04    7  1  4  2
 -4.730835151913e-05    7  1  4  3
  2.001984295003e-09    7  1  4  4
  3.231649813616e-10    7  1  5  1
  1.801100596608e-03    7  1  5  2
  6.892534655156e-07    7  1  5  3
 -8.008111886166e-10    7  1  5  4
  7.039327383388e-09    7  1  5  5
  3.864884762848e-09    7  1  6  2
  4.876125689838e-08    7  1  6  3
  3.383490102352e-06    7  1  6  4
 -2.094248820787e-04    7  1  6  5
 -4.093467390656e-08    7  1  6  6
  1.359764229420e-02    7  1  7  1
 -1.364329903746e-01    7  2  1  1
  7.334621555355e-09    7  2  2  1
 -1.777792738237e-01    7  2  2  2
  4.254530661731e-09    7  2  3  1
 -1.153581613402e-03    7  2  3  2
 -1.544472117106e-01    7  2  3  3
  1.002814619093e-03    7  2  4  1
 -1.212086239853e-09    7  2  4  2
 -1.782435503786e-09    7  2  4  3
  3.052268964180e-02    7  2  4  4
 -1.406000624685e-03    7  2  5  1
  5.282452592147e-09    7  2  5  2
  2.142717588917e-08    7  2  5  3
 -2.287848793674e-03    7  2  5  4
  7.518144394145e-02    7  2  5  5
  7.805024490197e-08    7  2  6  1
 -1.339808970019e-02    7  2  6  2
  1.244181990465e-01    7  2  6  3
 -1.930495903623e-09    7  2  6  4
 -9.693185493472e-09    7  2  6  5
 -5.753998879054e-02    7  2  6  6
  5.185098895871e-08    7  2  7  1
  1.497709002160e-01    7  2  7  2
 -1.327151500859e-02    7  3  1  1
  3.025301499313e-09    7  3  2  1
 -1.505894329782e-02    7  3  2  2
 -3.292794889471e-09    7  3  3  1
 -1.166856590592e-02    7  3  3  2
 -1.736666431574e-02    7  3  3  3
  1.094394395056e-04    7  3  4  1
 -4.636544068647e-10    7  3  4  2
 -8.212791700343e-10    7  3  4  3
  3.039801255454e-03    7  3  4  4
 -2.132382086632e-06    7  3  5  1
  1.663763690419e-09    7  3  5  2
  2.222927408571e-09    7  3  5  3
 -7.501654911345e-06    7  3  5  4
  7.485935108349e-03    7  3  5  5
  1.297712674414e-08    7  3  6  1
  1.136201756197e-02    7  3  6  2
  1.339808969925e-02    7  3  6  3
 -1.266382715822e-09    7  3  6  4
 -2.026837825284e-09    7  3  6  5
 -5.535580447253e-03    7  3  6  6
  4.072438092562e-09    7  3  7  1
  1.339828371232e-02    7  3  7  2
  1.398118803429e-02    7  3  7  3
 -2.490352729839e-08    7  4  1  1
 -2.149404761808e-03    7  4  2  1
 -2.038234380837e-08    7  4  2  2
 -2.073061698742e-04    7  4  3  1
  3.829900798241e-10    7  4  3  2
 -2.056620497506e-08    7  4  3  3
 -1.751037099316e-09    7  4  4  1
  2.951112475780e-03    7  4  4  2
  2.933760079970e-04    7  4  4  3
 -9.600249006558e-09    7  4  4  4
 -1.793425232730e-10    7  4  5  1
 -8.889793557760e-04    7  4  5  2
 -4.136651340546e-06    7  4  5  3
 -1.945263924939e-10    7  4  5  4
 -3.153085370433e-08    7  4  5  5
 -3.383490207991e-06    7  4  6  1
 -1.087720179404e-09    7  4  6  2
 -2.615412782863e-09    7  4  6  3
  1.805431441060e-04    7  4  6  5
 -2.665569276474e-08    7  4  6  6
 -7.813609958504e-05    7  4  7  1
 -3.645751949100e-09    7  4  7  2
 -1.653732457702e-09    7  4  7  3
  5.879356805799e-03    7  4  7  4
  8.484074810497e-09    7  5  1  1
  3.298614682894e-03    7  5  2  1
  8.429956076891e-09    7  5  2  2
  4.351549092699e-06    7  5  3  1
  7.271221296616e-10    7  5  3  2
  7.076125966108e-09    7  5  3  3
 -2.379711672194e-10    7  5  4  1
 -1.267453412747e-03    7  5  4  2
 -4.038209118466e-06    7  5  4  3
 -7.852783862408e-10    7  5  4  4
  1.086673727493e-09    7  5  5  1
  7.134127088362e-03    7  5  5  2
  7.061666148396e-04    7  5  5  3
 -2.531211555624e-09    7  5  5  4
 -1.682528686054e-09    7  5  5  5
 -2.094248825207e-04    7  5  6  1
  3.986762861501e-10    7  5  6  2
 -5.247296581177e-09    7  5  6  3
  1.805431432701e-04    7  5  6  4
  2.394333717012e-09    7  5  6  6
  2.191704931610e-03    7  5  7  1
 -4.319891823127e-09    7  5  7  2
 -5.890727430740e-10    7  5  7  3
 -1.877223465652e-03    7  5  7  4
  1.530289881084e-02    7  5  7  5
  1.141182199716e-08    7  6  2  1
 -3.212424167923e-03    7  6  2  2
  9.055936117794e-09    7  6  3  1
  1.632598159562e-02    7  6  3  2
  3.212424166757e-03    7  6  3  3
 -1.128682684731e-09    7  6  4  2
 -1.153601736435e-09    7  6  4  3
  3.317891788223e-04    7  6  5  1
 -9.162494980321e-10    7  6  5  2
 -1.055798354684e-09    7  6  5  3
  4.386753499168e-04    7  6  5  4
 -2.536227596958e-09    7  6  6  1
 -3.427623204491e-03    7  6  6  2
 -3.128895903932e-04    7  6  6  3
 -1.974306254623e-09    7  6  6  4
 -9.752198627714e-10    7  6  6  5
  7.875162709290e-07    7  6  6  6
 -5.035067166113e-09    7  6  7  1
  3.128895922621e-04    7  6  7  2
 -3.427623204413e-03    7  6  7  3
 -2.338131261538e-09    7  6  7  4
  1.586524760971e-09    7  6  7  5
  1.755102666216e-02    7  6  7  6
  5.073576416820e-01    7  7  1  1
 -5.809199013841e-09    7  7  2  1
  5.102978989454e-01    7  7  2  2
 -2.512608680037e-08    7  7  3  1
  3.212398546591e-03    7  7  3  2
  4.776366309575e-01    7  7  3  3
  2.239625784592e-02    7  7  4  1
 -1.618511774295e-08    7  7  4  2
 -2.127914819666e-08    7  7  4  3
  2.636960299815e-01    7  7  4  4
 -3.351879408498e-03    7  7  5  1
  1.638029321164e-10    7  7  5  2
 -3.430681434407e-10    7  7  5  3
 -4.511447696859e-03    7  7  5  4
  4.631366115113e-01    7  7  5  5
 -6.946502911574e-08    7  7  6  1
  5.535580448022e-03    7  7  6  2
 -5.753998878978e-02    7  7  6  3
 -3.705198934308e-08    7  7  6  4
  8.158086304551e-09    7  7  6  5
  4.848608362780e-01    7  7  6  6
 -4.623901930242e-08    7  7  7  1
 -6.438008620809e-02    7  7  7  2
 -6.162286668720e-03    7  7  7  3
 -2.889338820552e-08    7  7  7  4
  6.215016612701e-09    7  7  7  5
 -7.875155821152e-07    7  7  7  6
  5.199790191556e-01    7  7  7  7
  1.455182950947e-01    8  1  1  1
 -1.042725896961e-08    8  1  2  1
  1.494057926992e-01    8  1  2  2
 -5.305841936351e-09    8  1  3  1
  1.494057927001e-01    8  1  3  3
 -3.283891692704e-03    8  1  4  1
  1.389477729585e-09    8  1  4  2
  3.348640706732e-09    8  1  4  3
 -4.686379419997e-02    8  1  4  4
 -8.887450041098e-12    8  1  5  1
 -4.366843114423e-09    8  1  5  2
 -2.495461292649e-08    8  1  5  3
  1.734026236589e-12    8  1  5  4
 -1.162116512774e-01    8  1  5  5
 -8.514147974096e-08    8  1  6  1
  1.280921747908e-02    8  1  6  2
 -1.307396140128e-01    8  1  6  3
  4.520489792479e-09    8  1  6  4
  9.344651224130e-09    8  1  6  5
  2.952016595136e-02    8  1  6  6
 -5.304713902065e-08    8  1  7  1
 -1.307396140122e-01    8  1  7  2
 -1.280921747911e-02    8  1  7  3
  4.028939049705e-09    8  1  7  4
  4.517499330016e-09    8  1  7  5
 -2.114986775486e-12    8  1  7  6
  2.952016595120e-02    8  1  7  7
  1.700540727000e-01    8  1  8  1
 -3.798785515452e-08    8  2  1  1
  1.359013556593e-02    8  2  2  1
 -4.765309712910e-08    8  2  2  2
  3.159768332740e-06    8  2  3  1
 -6.495180306688e-09    8  2  3  2
 -4.135627437756e-08    8  2  3  3
  2.714938639091e-10    8  2  4  1
  3.794411976809e-04    8  2  4  2
 -5.234513598914e-07    8  2  4  3
  1.053602438268e-08    8  2  4  4
  1.829059986023e-12    8  2  5  1
  1.219968037468e-03    8  2  5  2
  1.190924786319e-04    8  2  5  3
 -1.106719590519e-10    8  2  5  4
  2.349976936370e-08    8  2  5  5
  9.119344629469e-04    8  2  6  1
 -5.784957337598e-09    8  2  6  2
  3.320308398553e-08    8  2  6  3
  1.219748516780e-04    8  2  6  4
  3.293953598285e-06    8  2  6  5
 -1.339944853601e-08    8  2  6  6
 -9.364084064814e-03    8  2  7  1
  3.455759928250e-08    8  2  7  2
  8.262010549336e-09    8  2  7  3
 -1.257604211613e-03    8  2  7  4
 -4.079413985726e-04    8  2  7  5
  3.135654381270e-09    8  2  7  6
 -8.637065458172e-09    8  2  7  7
 -4.059834618927e-08    8  2  8  1
  1.385326636725e-02    8  2  8  2
 -6.281367726609e-08    8  3  1  1
 -3.159767535034e-06    8  3  2  1
 -7.201263698628e-08    8  3  2  2
  1.359013556628e-02    8  3  3  1
 -2.986375978548e-09    8  3  3  2
 -8.576807830069e-08    8  3  3  3
  6.229892059054e-10    8  3  4  1
  5.234509591803e-07    8  3  4  2
  3.794411976210e-04    8  3  4  3
  1.902357777289e-08    8  3  4  4
 -2.166938849620e-09    8  3  5  1
  1.190924796608e-04    8  3  5  2
 -1.219968038363e-03    8  3  5  3
 -2.565079756114e-10    8  3  5  4
  4.367095498458e-08    8  3  5  5
 -9.364084064325e-03    8  3  6  1
 -3.063194287006e-09    8  3  6  2
  6.105225297957e-08    8  3  6  3
 -1.257604211766e-03    8  3  6  4
  4.079413986434e-04    8  3  6  5
 -1.505266394252e-08    8  3  6  6
 -9.119344619437e-04    8  3  7  1
  5.880125870047e-08    8  3  7  2
  4.725182823831e-09    8  3  7  3
 -1.219748519261e-04    8  3  7  4
  3.293955143995e-06    8  3  7  5
  2.409318795443e-09    8  3  7  6
 -2.018585014703e-08    8  3  7  7
 -7.010082133220e-08    8  3  8  1
  1.385326636792e-02    8  3  8  3
 -2.601152596691e-02    8  4  1  1
  9.809940097726e-10    8  4  2  1
 -1.925999224322e-02    8  4  2  2
  2.506276250881e-09    8  4  3  1
 -1.925999224377e-02    8  4  3  3
 -7.219075716053e-03    8  4  4  1
  3.353065276179e-09    8  4  4  2
  5.167394812355e-09    8  4  4  3
 -7.688690512979e-03    8  4  4  4
 -5.421373580357e-10    8  4  5  2
 -3.096098468141e-09    8  4  5  3
  3.381073261825e-12    8  4  5  4
 -5.249681028040e-02    8  4  5  5
 -2.775462155820e-09    8  4  6  1
  1.139163245353e-03    8  4  6  2
 -1.152049366140e-02    8  4  6  3
  7.230412227051e-09    8  4  6  4
  1.224623422502e-10    8  4  6  5
 -3.675733062439e-02    8  4  6  6
 -1.913451583664e-09    8  4  7  1
 -1.152049366098e-02    8  4  7  2
 -1.139163246560e-03    8  4  7  3
  5.149227411029e-09    8  4  7  4
  2.163643799059e-10    8  4  7  5
 -1.552199402747e-12    8  4  7  6
 -3.675733062408e-02    8  4  7  7
  1.774297825095e-02    8  4  8  1
 -4.241086305461e-09    8  4  8  2
 -7.334844934118e-09    8  4  8  3
  1.536724708174e-02    8  4  8  4
 -8.692006351102e-12    8  5  1  1
  1.806393213350e-10    8  5  2  1
  2.146163352374e-03    8  5  2  2
 -3.375665106973e-09    8  5  3  1
  2.145168000198e-04    8  5  3  2
 -2.146163371063e-03    8  5  3  3
 -2.191707547655e-10    8  5  4  2
  2.824444703475e-11    8  5  4  3
  3.597493916298e-12    8  5  4  4
 -1.161892507150e-02    8  5  5  1
  2.418278962068e-09    8  5  5  2
  4.608436755347e-09    8  5  5  3
 -5.840606152337e-03    8  5  5  4
  9.067631754245e-12    8  5  5  5
 -2.624588291698e-10    8  5  6  1
  5.927721702786e-06    8  5  6  2
 -2.820822854439e-03    8  5  6  3
  1.483336837529e-09    8  5  6  4
  2.811730091964e-09    8  5  6  5
 -6.303782276835e-03    8  5  6  6
  1.328198045925e-09    8  5  7  1
  2.820822871407e-03    8  5  7  2
  5.927723306318e-06    8  5  7  3
 -9.323241508863e-11    8  5  7  4
  1.994035829255e-09    8  5  7  5
 -6.183446597555e-04    8  5  7  6
  6.303782274339e-03    8  5  7  7
 -1.041292335916e-11    8  5  8  1
  6.544907947736e-11    8  5  8  2
  1.983605766923e-10    8  5  8  3
 -1.291604108328e-12    8  5  8  4
  2.046286737552e-02    8  5  8  5
 -6.403484015542e-08    8  6  1  1
  1.420487489882e-03    8  6  2  1
 -5.346866122520e-08    8  6  2  2
 -1.454161790197e-02    8  6  3  1
  2.653446241862e-09    8  6  3  2
 -3.865870490030e-08    8  6  3  3
  8.129153865590e-10    8  6  4  1
  2.635835449806e-05    8  6  4  2
 -2.808638650909e-04    8  6  4  3
  1.224169510794e-08    8  6  4  4
  2.303266608165e-09    8  6  5  1
  4.236634830126e-07    8  6  5  2
  1.264286112077e-03    8  6  5  3
  3.477409276866e-10    8  6  5  4
  3.202720570647e-08    8  6  5  5
  3.267320589241e-03    8  6  6  1
 -5.834886775941e-09    8  6  6  2
  4.427684357410e-08    8  6  6  3
  4.846940802671e-04    8  6  6  4
  3.662618442127e-03    8  6  6  5
 -2.066770867207e-08    8  6  6  6
  7.796270440871e-06    8  6  7  1
  4.355475438712e-08    8  6  7  2
  5.757143867872e-09    8  6  7  3
 -2.582215895204e-07    8  6  7  4
  3.651127024605e-04    8  6  7  5
 -1.375014603450e-09    8  6  7  6
 -1.783886984930e-08    8  6  7  7
 -5.591458863371e-08    8  6  8  1
  4.325702743165e-04    8  6  8  2
 -4.522331020988e-03    8  6  8  3
 -6.989640193334e-09    8  6  8  4
  1.767803344448e-10    8  6  8  5
  1.527202267808e-02    8  6  8  6
 -4.007335087529e-08    8  7  1  1
 -1.454161790297e-02    8  7  2  1
 -2.631423530704e-08    8  7  2  2
 -1.420487488257e-03    8  7  3  1
  7.114064173791e-09    8  7  3  2
 -3.142271111533e-08    8  7  3  3
  4.314076301146e-10    8  7  4  1
 -2.808638647707e-04    8  7  4  2
 -2.635835481790e-05    8  7  4  3
  7.281575507252e-09    8  7  4  4
  2.518598587120e-10    8  7  5  1
 -1.264286112047e-03    8  7  5  2
  4.236620152806e-07    8  7  5  3
  3.657873759346e-10    8  7  5  4
  1.656772405144e-08    8  7  5  5
 -7.796269278369e-06    8  7  6  1
 -1.274020103821e-10    8  7  6  2
  2.695536441040e-08    8  7  6  3
  2.582212763339e-07    8  7  6  4
  3.651126992918e-04    8  7  6  5
 -1.140669410160e-08    8  7  6  6
  3.267320588179e-03    8  7  7  1
  2.676019488093e-08    8  7  7  2
  3.864816561871e-10    8  7  7  3
  4.846940805856e-04    8  7  7  4
 -3.662618444318e-03    8  7  7  5
 -1.311762418701e-09    8  7  7  6
 -1.392190198926e-08    8  7  7  7
 -3.329142717271e-08    8  7  8  1
 -4.522331020582e-03    8  7  8  2
 -4.325702750556e-04    8  7  8  3
 -4.060034057499e-09    8  7  8  4
 -4.419373863191e-11    8  7  8  5
 -1.740509890871e-12    8  7  8  6
  1.527202267967e-02    8  7  8  7
  5.334464989010e-01    8  8  1  1
 -2.835715590766e-08    8  8  2  1
  4.611389134773e-01    8  8  2  2
 -4.386342722330e-08    8  8  3  1
  4.611389134794e-01    8  8  3  3
  2.954548713382e-02    8  8  4  1
 -1.742921676974e-08    8  8  4  2
 -2.563761920106e-08    8  8  4  3
  2.915215424739e-01    8  8  4  4
 -1.098075490499e-11    8  8  5  1
  1.584449061670e-09    8  8  5  2
  8.116204750417e-09    8  8  5  3
 -1.771228223742e-11    8  8  5  4
  5.396169468800e-01    8  8  5  5
 -6.078148826647e-08    8  8  6  1
  1.635589956890e-03    8  8  6  2
 -1.820545146937e-02    8  8  6  3
 -4.476440027208e-08    8  8  6  4
  7.633536769486e-09    8  8  6  5
  5.205008398726e-01    8  8  6  6
 -3.449187074881e-08    8  8  7  1
 -1.820545146999e-02    8  8  7  2
 -1.635589953997e-03    8  8  7  3
 -3.136725737966e-08    8  8  7  4
  3.231395543188e-09    8  8  7  5
  3.934167495428e-12    8  8  7  6
  5.205008398715e-01    8  8  7  7
 -2.003314820263e-02    8  8  8  1
 -2.084188224328e-09    8  8  8  2
 -2.035067467343e-09    8  8  8  3
 -5.013025699194e-02    8  8  8  4
  3.533605022065e-12    8  8  8  5
 -1.389441907904e-09    8  8  8  6
 -2.884579032080e-09    8  8  8  7
  6.208858173829e-01    8  8  8  8
 -1.123424024886e-01    9  1  1  1
  1.325171007235e-08    9  1  2  1
 -9.310251667059e-02    9  1  2  2
  1.934833536963e-08    9  1  3  1
 -9.310251667211e-02    9  1  3  3
 -6.874225689138e-03    9  1  4  1
  2.397878794294e-09    9  1  4  2
  3.603199380866e-09    9  1  4  3
 -1.655429942435e-02    9  1  4  4
  7.923125646045e-12    9  1  5  1
  4.954010401853e-11    9  1  5  2
  6.543348798824e-09    9  1  5  3
 -3.597648839186e-02    9  1  5  5
  5.930675056194e-08    9  1  6  1
 -5.528597610094e-03    9  1  6  2
  5.727069935513e-02    9  1  6  3
  5.103430781018e-09    9  1  6  4
 -3.701495200722e-09    9  1  6  5
 -8.055003368205e-02    9  1  6  6
  3.520710020906e-08    9  1  7  1
  5.727069935553e-02    9  1  7  2
  5.528597607943e-03    9  1  7  3
  3.955674563428e-09    9  1  7  4
 -3.722668343948e-09    9  1  7  5
 -2.162295747158e-12    9  1  7  6
 -8.055003368071e-02    9  1  7  7
 -5.528849513356e-02    9  1  8  1
  1.564677455769e-08    9  1  8  2
  2.815122782535e-08    9  1  8  3
  1.425555104409e-03    9  1  8  4
  5.572499721894e-12    9  1  8  5
  2.910582666769e-08    9  1  8  6
  1.945480560191e-08    9  1  8  7
 -9.236931312485e-02    9  1  8  8
  7.935153480180e-02    9  1  9  1
  2.293577113893e-08    9  2  1  1
 -1.610747972565e-03    9  2  2  1
  2.378815663731e-08    9  2  2  2
 -5.127725281304e-06    9  2  3  1
  3.593957775504e-09    9  2  3  2
  2.406509303370e-08    9  2  3  3
 -2.157666494618e-09    9  2  4  1
 -1.654748110649e-03    9  2  4  2
 -1.138254187773e-06    9  2  4  3
 -1.654596959543e-08    9  2  4  4
  1.212162168715e-09    9  2  5  1
  1.927948578388e-03    9  2  5  2
  1.950485889099e-04    9  2  5  3
  1.152171641347e-09    9  2  5  4
 -3.902089201193e-08    9  2  5  5
 -7.811814858792e-04    9  2  6  1
  5.672919217653e-09    9  2  6  2
 -3.362590545953e-08    9  2  6  3
  2.310966731340e-04    9  2  6  4
  7.823926268608e-06    9  2  6  5
 -1.275030534319e-09    9  2  6  6
  8.154581757963e-03    9  2  7  1
 -3.512709665772e-08    9  2  7  2
 -1.071479790301e-08    9  2  7  3
 -2.365499876118e-03    9  2  7  4
  2.745261286108e-03    9  2  7  5
 -2.473185189378e-09    9  2  7  6
 -8.676248988249e-09    9  2  7  7
  3.926539231122e-08    9  2  8  1
 -3.445484146690e-03    9  2  8  2
 -2.306040017596e-06    9  2  8  3
  4.533347652263e-09    9  2  8  4
 -1.217888998709e-09    9  2  8  5
 -3.070127686314e-04    9  2  8  6
  3.224052234372e-03    9  2  8  7
 -1.267680574730e-08    9  2  8  8
 -1.515786643783e-08    9  2  9  1
  1.352517323944e-02    9  2  9  2
  7.758077180539e-08    9  3  1  1
  5.127727393208e-06    9  3  2  1
  8.346519430400e-08    9  3  2  2
 -1.610747973295e-03    9  3  3  1
  8.563741116393e-11    9  3  3  2
  8.964246382443e-08    9  3  3  3
 -2.409428802229e-09    9  3  4  1
  1.138253412215e-06    9  3  4  2
 -1.654748110595e-03    9  3  4  3
 -2.672966804770e-08    9  3  4  4
 -1.371853861473e-09    9  3  5  1
  1.950485916935e-04    9  3  5  2
 -1.927948575892e-03    9  3  5  3
 -1.581620687582e-09    9  3  5  4
 -6.607671170630e-08    9  3  5  5
  8.154581757367e-03    9  3  6  1
  5.372370817753e-09    9  3  6  2
 -8.801501101734e-08    9  3  6  3
 -2.365499875327e-03    9  3  6  4
 -2.745261287927e-03    9  3  6  5
  1.596679630314e-08    9  3  6  6
  7.811814879717e-04    9  3  7  1
 -8.249574912305e-08    9  3  7  2
 -6.298852337470e-09    9  3  7  3
 -2.310966743254e-04    9  3  7  4
  7.823930073664e-06    9  3  7  5
 -3.139336123514e-09    9  3  7  6
  2.104246902781e-08    9  3  7  7
  9.017298885573e-08    9  3  8  1
  2.306042861134e-06    9  3  8  2
 -3.445484147483e-03    9  3  8  3
  8.881722472834e-09    9  3  8  4
  2.383106381405e-09    9  3  8  5
  3.224052235836e-03    9  3  8  6
  3.070127680352e-04    9  3  8  7
 -1.987905436371e-09    9  3  8  8
 -4.158954005899e-08    9  3  9  1
  2.578459392069e-12    9  3  9  2
  1.352517323841e-02    9  3  9  3
 -3.677103974284e-02    9  4  1  1
  1.948744037232e-09    9  4  2  1
 -3.271143314412e-02    9  4  2  2
  3.282176708037e-09    9  4  3  1
 -1.157078202632e-12    9  4  3  2
 -3.271143314512e-02    9  4  3  3
 -3.643859968141e-03    9  4  4  1
  9.970732717990e-10    9  4  4  2
  9.436442655437e-10    9  4  4  3
 -4.967410667106e-03    9  4  4  4
  2.493297498412e-10    9  4  5  2
 -4.937181609742e-10    9  4  5  3
  1.016983927933e-12    9  4  5  4
 -3.210430798022e-02    9  4  5  5
  3.917761208270e-09    9  4  6  1
 -1.625077821506e-04    9  4  6  2
  1.723819569816e-03    9  4  6  3
  1.343328732406e-09    9  4  6  4
 -1.850126285909e-09    9  4  6  5
 -3.468898609880e-02    9  4  6  6
  2.423893096493e-09    9  4  7  1
  1.723819570379e-03    9  4  7  2
  1.625077798350e-04    9  4  7  3
  1.048396454653e-09    9  4  7  4
  2.690207999626e-10    9  4  7  5
 -2.342791701429e-12    9  4  7  6
 -3.468898609793e-02    9  4  7  7
 -1.119680685867e-03    9  4  8  1
  7.223678280219e-10    9  4  8  2
  1.579001597893e-09    9  4  8  3
  7.007137724828e-03    9  4  8  4
  1.554707093885e-10    9  4  8  6
  2.677687312027e-10    9  4  8  7
 -4.013595675303e-02    9  4  8  8
  4.468474199561e-03    9  4  9  1
  2.022896566414e-09    9  4  9  2
  1.932214133197e-09    9  4  9  3
  5.741086697580e-03    9  4  9  4
  9.935167074360e-12    9  5  1  1
 -9.598324406114e-10    9  5  2  1
  2.015889354728e-03    9  5  2  2
  2.012328998436e-09    9  5  3  1
  2.024189206822e-04    9  5  3  2
 -2.015889328126e-03    9  5  3  3
 -1.924822027876e-12    9  5  4  1
  3.974981311505e-10    9  5  4  2
 -8.138294358783e-10    9  5  4  3
 -1.571783589746e-11    9  5  4  4
 -2.343939851052e-03    9  5  5  1
 -2.233234625455e-09    9  5  5  2
 -4.645984059487e-09    9  5  5  3
 -2.186054623106e-03    9  5  5  4
 -4.345170416400e-11    9  5  5  5
  6.743246448784e-10    9  5  6  1
  5.625770840792e-06    9  5  6  2
 -1.573745184311e-03    9  5  6  3
 -9.018670018315e-10    9  5  6  4
 -1.021573813637e-08    9  5  6  5
 -3.025818333421e-03    9  5  6  6
 -7.331732600157e-10    9  5  7  1
  1.573745142919e-03    9  5  7  2
  5.625766732878e-06    9  5  7  3
  5.282218474874e-10    9  5  7  4
 -6.254941755758e-09    9  5  7  5
 -2.920053956506e-04    9  5  7  6
  3.025818313067e-03    9  5  7  7
  2.675602732022e-11    9  5  8  1
  3.203784320875e-10    9  5  8  2
  4.331875904395e-10    9  5  8  3
  3.928776456951e-12    9  5  8  4
  5.216164457219e-03    9  5  8  5
 -3.578151507404e-09    9  5  8  6
  1.359135031007e-09    9  5  8  7
 -1.895521485191e-11    9  5  8  8
 -2.485060784836e-09    9  5  9  2
  2.446654922297e-09    9  5  9  3
  2.341658241433e-03    9  5  9  5
  1.772278885317e-08    9  6  1  1
 -1.183725454996e-03    9  6  2  1
  2.235317492269e-08    9  6  2  2
  1.236564556130e-02    9  6  3  1
 -3.504201702559e-09    9  6  3  2
 -1.953981120107e-09    9  6  3  3
 -9.159504716821e-09    9  6  4  1
  1.596054871345e-04    9  6  4  2
 -1.620977033574e-03    9  6  4  3
 -6.100252675727e-08    9  6  4  4
 -4.088435861475e-09    9  6  5  1
  7.086207852833e-06    9  6  5  2
 -1.817842037922e-03    9  6  5  3
 -3.113212694644e-09    9  6  5  4
 -1.505863624433e-07    9  6  5  5
 -5.618701294297e-03    9  6  6  1
  7.576978490568e-09    9  6  6  2
 -6.663609758130e-08    9  6  6  3
 -2.946093556236e-03    9  6  6  4
 -2.305906323563e-03    9  6  6  5
 -6.556555725485e-08    9  6  6  6