 &FCI NORB=9 ,NELEC=11 ,MS2=5,
  ORBSYM=1,1,1,1,1,1,1,1,1,
  ISYM=1,
 &END
  6.177510039784e-01    1  1  1  1
  3.034605006338e-02    2  1  2  1
  5.817864327984e-01    2  2  1  1
  6.717826268828e-01    2  2  2  2
  3.034605006338e-02    3  1  3  1
  9.480572049092e-12    3  2  2  2
  3.107835568895e-02    3  2  3  2
  5.817864327984e-01    3  3  1  1
  6.096259156958e-01    3  3  2  2
 -9.479161818834e-12    3  3  3  2
  6.717826268828e-01    3  3  3  3
  3.911164106446e-04    4  1  2  2
 -4.238512041971e-04    4  1  3  2
 -3.911164106418e-04    4  1  3  3
  4.995458852493e-03    4  1  4  1
  7.492700089867e-04    4  2  2  1
 -8.122957226474e-04    4  2  3  1
  2.406423707063e-03    4  2  4  2
 -8.122957226474e-04    4  3  2  1
 -7.492700089860e-04    4  3  3  1
  2.406423707063e-03    4  3  4  3
  3.631501368833e-01    4  4  1  1
  3.230032638608e-01    4  4  2  2
  3.230032638608e-01    4  4  3  3
  8.556307950206e-01    4  4  4  4
 -4.238511769825e-04    5  1  2  2
 -3.911162420492e-04    5  1  3  2
  4.238511769836e-04    5  1  3  3
  2.893862459201e-11    5  1  4  1
  4.995458970127e-03    5  1  5  1
 -8.122957006351e-04    5  2  2  1
 -7.492698393483e-04    5  2  3  1
  5.164906313960e-11    5  2  4  2
  1.153524244089e-03    5  2  4  3
  2.406423812977e-03    5  2  5  2
 -7.492698393482e-04    5  3  2  1
  8.122957006353e-04    5  3  3  1
 -1.153524244090e-03    5  3  4  2
  5.164914522266e-11    5  3  4  3
  2.406423812978e-03    5  3  5  3
  2.635567357032e-10    5  4  1  1
  2.144318978627e-10    5  4  2  2
  2.144321620326e-10    5  4  3  3
  1.318301100124e-09    5  4  4  4
  1.841748904968e-02    5  4  5  4
  3.631501372282e-01    5  5  1  1
  3.230032641213e-01    5  5  2  2
  3.230032641213e-01    5  5  3  3
  8.187958189143e-01    5  5  4  4
  1.318301139364e-09    5  5  5  4
  8.556307990067e-01    5  5  5  5
  1.007335779898e-02    6  1  1  1
  1.942246320560e-02    6  1  2  2
  1.942246320559e-02    6  1  3  3
 -1.099476363945e-01    6  1  4  4
 -2.688551340295e-10    6  1  5  4
 -1.099476368468e-01    6  1  5  5
  3.407290296854e-02    6  1  6  1
  3.621667594334e-03    6  2  2  1
  1.804382807762e-07    6  2  3  1
  4.643322330608e-04    6  2  4  2
 -5.017823249708e-04    6  2  4  3
 -5.017823282951e-04    6  2  5  2
 -4.643323174865e-04    6  2  5  3
  3.181745182629e-03    6  2  6  2
 -1.804382805428e-07    6  3  2  1
  3.621667594334e-03    6  3  3  1
 -5.017823249708e-04    6  3  4  2
 -4.643322330607e-04    6  3  4  3
 -4.643323174867e-04    6  3  5  2
  5.017823282952e-04    6  3  5  3
  3.181745182629e-03    6  3  6  3
  1.583950369922e-03    6  4  2  2
 -1.713165013143e-03    6  4  3  2
 -1.583950369922e-03    6  4  3  3
 -8.575659706527e-03    6  4  4  1
 -6.550612461861e-08    6  4  5  1
  3.327994706791e-02    6  4  6  4
 -1.713165021018e-03    6  5  2  2
 -1.583950491742e-03    6  5  3  2
  1.713165021018e-03    6  5  3  3
  6.525529830645e-08    6  5  4  1
 -8.575660067427e-03    6  5  5  1
  3.894046833455e-10    6  5  6  4
  3.327994787943e-02    6  5  6  5
  3.650979851383e-01    6  6  1  1
  3.242796084009e-01    6  6  2  2
  3.242796084009e-01    6  6  3  3
  6.986799947451e-01    6  6  4  4
  9.814840580977e-10    6  6  5  4
  6.986799962099e-01    6  6  5  5
 -1.045998167405e-01    6  6  6  1
  6.831837521612e-01    6  6  6  6
 -4.221729154184e-03    7  1  2  1
  4.536462378448e-04    7  1  3  1
  9.404289247976e-04    7  1  4  2
 -8.198182198022e-04    7  1  4  3
 -8.198182126870e-04    7  1  5  2
 -9.404290355988e-04    7  1  5  3
 -9.113176376034e-04    7  1  6  2
  9.843500124416e-05    7  1  6  3
  6.331206244657e-03    7  1  7  1
 -4.601106097562e-02    7  2  1  1
 -7.463236734030e-02    7  2  2  2
  6.675760047381e-04    7  2  3  2
 -6.222538287449e-02    7  2  3  3
 -5.624144465355e-04    7  2  4  1
  9.701949045316e-02    7  2  4  4
  4.909622569259e-04    7  2  5  1
  1.866841642246e-10    7  2  5  4
  9.701949074739e-02    7  2  5  5
 -2.919975714059e-02    7  2  6  1
  2.230750487400e-03    7  2  6  4
 -1.946775930042e-03    7  2  6  5
  8.316918051417e-02    7  2  6  6
  4.136796992425e-02    7  2  7  2
  4.942820135396e-03    7  3  1  1
  6.688280937321e-03    7  3  2  2
 -6.203492185275e-03    7  3  3  2
  8.023432841080e-03    7  3  3  3
  4.909622470179e-04    7  3  4  1
 -1.044703711875e-02    7  3  4  4
  5.624144724928e-04    7  3  5  1
 -3.500756739645e-11    7  3  5  4
 -1.044703712487e-02    7  3  5  5
  3.142650907169e-03    7  3  6  1
 -1.946775933169e-03    7  3  6  4
 -2.230750722305e-03    7  3  6  5
 -8.955952639341e-03    7  3  6  6
 -4.122293343284e-03    7  3  7  2
  3.496679838074e-03    7  3  7  3
  1.687818915539e-03    7  4  2  1
 -1.472691223020e-03    7  4  3  1
  6.309948555377e-03    7  4  4  2
 -6.795180676201e-04    7  4  4  3
 -3.122455863207e-04    7  4  5  2
 -2.899516211157e-03    7  4  5  3
 -8.130055954956e-04    7  4  6  2
  7.094589940027e-04    7  4  6  3
  1.789325753569e-03    7  4  7  1
  3.231040486432e-02    7  4  7  4
 -1.472691213909e-03    7  5  2  1
 -1.687818943940e-03    7  5  3  1
  3.122457073160e-04    7  5  4  2
  2.899516121055e-03    7  5  4  3
  6.309948696903e-03    7  5  5  2
 -6.795180139310e-04    7  5  5  3
  7.094589941683e-04    7  5  6  2
  8.130055506388e-04    7  5  6  3
 -1.251661124106e-03    7  5  7  1
  6.703051633199e-11    7  5  7  4
  3.231040494562e-02    7  5  7  5
 -2.801273298855e-03    7  6  2  1
  3.015236167890e-04    7  6  3  1
 -1.130820170940e-03    7  6  4  2
  9.872402987713e-04    7  6  4  3
  9.872402968007e-04    7  6  5  2
  1.130820156408e-03    7  6  5  3
  3.054440782602e-03    7  6  6  2
 -3.286207801372e-04    7  6  6  3
 -3.581123697199e-03    7  6  7  1
 -5.666084852211e-03    7  6  7  4
  3.962326301251e-03    7  6  7  5
  1.991941051703e-02    7  6  7  6
  3.884199437800e-01    7  7  1  1
  3.528788841076e-01    7  7  2  2
 -9.333290745245e-04    7  7  3  2
  3.443030913989e-01    7  7  3  3
 -4.100537273369e-03    7  7  4  1
  7.712193521974e-01    7  7  4  4
  2.867045679639e-03    7  7  5  1
  1.045226342753e-09    7  7  5  4
  7.712193536650e-01    7  7  5  5
 -1.101933910446e-01    7  7  6  1
  1.260097885004e-02    7  7  6  4
 -8.811371764185e-03    7  7  6  5
  7.062843187929e-01    7  7  6  6
  9.933315672312e-02    7  7  7  2
 -1.069724999137e-02    7  7  7  3
  8.183070029410e-01    7  7  7  7
 -4.536462378448e-04    8  1  2  1
 -4.221729154184e-03    8  1  3  1
 -8.198182198021e-04    8  1  4  2
 -9.404289247978e-04    8  1  4  3
 -9.404290355987e-04    8  1  5  2
  8.198182126871e-04    8  1  5  3
 -9.843500124396e-05    8  1  6  2
 -9.113176376032e-04    8  1  6  3
 -1.251661126220e-03    8  1  7  4
 -1.789325700354e-03    8  1  7  5
  8.212624084877e-08    8  1  7  6
  6.331206244657e-03    8  1  8  1
 -4.942820135396e-03    8  2  1  1
 -8.023432841080e-03    8  2  2  2
 -6.203492185275e-03    8  2  3  2
 -6.688280937321e-03    8  2  3  3
  4.909622470173e-04    8  2  4  1
  1.044703711875e-02    8  2  4  4
  5.624144724926e-04    8  2  5  1
  3.500698909952e-11    8  2  5  4
  1.044703712487e-02    8  2  5  5
 -3.142650907169e-03    8  2  6  1
 -1.946775933170e-03    8  2  6  4
 -2.230750722305e-03    8  2  6  5
  8.955952639342e-03    8  2  6  6
  4.122293395567e-03    8  2  7  2
  2.609641147721e-03    8  2  7  3
  9.508301166675e-03    8  2  7  7
  3.496679838074e-03    8  2  8  2
 -4.601106097562e-02    8  3  1  1
 -6.222538287449e-02    8  3  2  2
 -6.675760047384e-04    8  3  3  2
 -7.463236734030e-02    8  3  3  3
  5.624144465302e-04    8  3  4  1
  9.701949045317e-02    8  3  4  4
 -4.909622569275e-04    8  3  5  1
  1.866844223324e-10    8  3  5  4
  9.701949074739e-02    8  3  5  5
 -2.919975714059e-02    8  3  6  1
 -2.230750487403e-03    8  3  6  4
  1.946775930041e-03    8  3  6  5
  8.316918051417e-02    8  3  6  6
  3.526164905255e-02    8  3  7  2
 -4.122293395567e-03    8  3  7  3
  8.829487397959e-02    8  3  7  7
  4.122293343285e-03    8  3  8  2
  4.136796992425e-02    8  3  8  3
 -1.472691223020e-03    8  4  2  1
 -1.687818915539e-03    8  4  3  1
  6.795180676204e-04    8  4  4  2
  6.309948555378e-03    8  4  4  3
  2.899516211157e-03    8  4  5  2
 -3.122455863208e-04    8  4  5  3
  7.094589940025e-04    8  4  6  2
  8.130055954951e-04    8  4  6  3
 -1.251661126220e-03    8  4  7  1
  1.443729618927e-02    8  4  7  5
  3.962326296490e-03    8  4  7  6
 -1.789325753570e-03    8  4  8  1
  3.231040486433e-02    8  4  8  4
 -1.687818943940e-03    8  5  2  1
  1.472691213909e-03    8  5  3  1
 -2.899516121055e-03    8  5  4  2
  3.122457073159e-04    8  5  4  3
  6.795180139311e-04    8  5  5  2
  6.309948696903e-03    8  5  5  3
  8.130055506393e-04    8  5  6  2
 -7.094589941685e-04    8  5  6  3
 -1.789325700354e-03    8  5  7  1
 -1.443729618927e-02    8  5  7  4
  5.666084721897e-03    8  5  7  6
  1.251661124106e-03    8  5  8  1
  6.703007819768e-11    8  5  8  4
  3.231040494562e-02    8  5  8  5
 -3.015236167886e-04    8  6  2  1
 -2.801273298855e-03    8  6  3  1
  9.872402987714e-04    8  6  4  2
  1.130820170939e-03    8  6  4  3
  1.130820156407e-03    8  6  5  2
 -9.872402968008e-04    8  6  5  3
  3.286207801368e-04    8  6  6  2
  3.054440782602e-03    8  6  6  3
 -8.212624048589e-08    8  6  7  1
  3.962326296490e-03    8  6  7  4
  5.666084721894e-03    8  6  7  5
 -3.581123697199e-03    8  6  8  1
  5.666084852209e-03    8  6  8  4
 -3.962326301252e-03    8  6  8  5
  1.991941051703e-02    8  6  8  6
  9.333291405690e-04    8  7  2  2
  4.287896430093e-03    8  7  3  2
 -9.333291405684e-04    8  7  3  3
  2.867045662862e-03    8  7  4  1
  4.100537523074e-03    8  7  5  1
 -8.811371854436e-03    8  7  6  4
 -1.260097949839e-02    8  7  6  5
  5.944745750455e-04    8  7  7  2
  5.519141609938e-03    8  7  7  3
  1.543585729539e-10    8  7  7  7
  5.519141609937e-03    8  7  8  2
 -5.944745750454e-04    8  7  8  3
  3.138734878531e-02    8  7  8  7
  3.884199437800e-01    8  8  1  1
  3.443030913989e-01    8  8  2  2
  9.333290745251e-04    8  8  3  2
  3.528788841076e-01    8  8  3  3
  4.100537273348e-03    8  8  4  1
  7.712193521974e-01    8  8  4  4
 -2.867045679646e-03    8  8  5  1
  1.045227335700e-09    8  8  5  4
  7.712193536650e-01    8  8  5  5
 -1.101933910446e-01    8  8  6  1
 -1.260097885005e-02    8  8  6  4
  8.811371764181e-03    8  8  6  5
  7.062843187929e-01    8  8  6  6
  8.829487397959e-02    8  8  7  2
 -9.508301166674e-03    8  8  7  3
  7.555323065560e-01    8  8  7  7
  1.069724999137e-02    8  8  8  2
  9.933315672312e-02    8  8  8  3
 -1.543577158218e-10    8  8  8  7
  8.183070029410e-01    8  8  8  8
  1.694800752998e-01    9  1  1  1
  1.677759567033e-01    9  1  2  2
  1.677759567033e-01    9  1  3  3
 -6.415407966549e-02    9  1  4  4
 -9.688542555315e-11    9  1  5  4
 -6.415407985913e-02    9  1  5  5
  3.562866829396e-02    9  1  6  1
 -5.092773014362e-02    9  1  6  6
 -5.059611552659e-02    9  1  7  2
  5.441287171340e-03    9  1  7  3
 -5.141171084181e-02    9  1  7  7
 -5.441287171340e-03    9  1  8  2
 -5.059611552659e-02    9  1  8  3
 -5.141171084181e-02    9  1  8  8
  1.150759660398e-01    9  1  9  1
  1.244204840748e-02    9  2  2  1
 -8.926512953562e-08    9  2  3  1
  2.740995987608e-04    9  2  4  2
 -2.954060773543e-04    9  2  4  3
 -2.954060733144e-04    9  2  5  2
 -2.740996212830e-04    9  2  5  3
  2.617919190196e-03    9  2  6  2
  1.806116119526e-07    9  2  6  3
 -2.617239983404e-03    9  2  7  1
 -1.722425102869e-04    9  2  7  4
  1.506783074634e-04    9  2  7  5
  3.124247110101e-04    9  2  7  6
 -2.814964339972e-04    9  2  8  1
  1.506783062509e-04    9  2  8  4
  1.722424575864e-04    9  2  8  5
  3.403059590627e-05    9  2  8  6
  8.626993991097e-03    9  2  9  2
  8.926512959930e-08    9  3  2  1
  1.244204840748e-02    9  3  3  1
 -2.954060773543e-04    9  3  4  2
 -2.740995987605e-04    9  3  4  3
 -2.740996212830e-04    9  3  5  2
  2.954060733147e-04    9  3  5  3
 -1.806116118787e-07    9  3  6  2
  2.617919190196e-03    9  3  6  3
  2.814964339972e-04    9  3  7  1
  1.506783062509e-04    9  3  7  4
  1.722424575863e-04    9  3  7  5
 -3.403059590630e-05    9  3  7  6
 -2.617239983404e-03    9  3  8  1
  1.722425102870e-04    9  3  8  4
 -1.506783074634e-04    9  3  8  5
  3.124247110101e-04    9  3  8  6
  8.626993991097e-03    9  3  9  3
 -7.746522673090e-05    9  4  2  2
  8.428977392601e-05    9  4  3  2
  7.746522674126e-05    9  4  3  3
 -6.083873198963e-03    9  4  4  1
  1.671499893512e-08    9  4  5  1
  8.186122361799e-03    9  4  6  4
 -1.103298643065e-07    9  4  6  5
  6.663742332590e-04    9  4  7  2
 -5.812392821197e-04    9  4  7  3
  3.662926679319e-03    9  4  7  7
 -5.812392821193e-04    9  4  8  2
 -6.663742332558e-04    9  4  8  3
 -2.560966253786e-03    9  4  8  7
 -3.662926679292e-03    9  4  8  8
  8.969709555933e-03    9  4  9  4
  8.428977934753e-05    9  5  2  2
  7.746515938174e-05    9  5  3  2
 -8.428977934447e-05    9  5  3  3
 -1.688019296495e-08    9  5  4  1
 -6.083873382589e-03    9  5  5  1
  1.111746875336e-07    9  5  6  4
  8.186123122235e-03    9  5  6  5
 -5.812392679194e-04    9  5  7  2
 -6.663743963205e-04    9  5  7  3
 -2.560966100515e-03    9  5  7  7
 -6.663743963204e-04    9  5  8  2
  5.812392679203e-04    9  5  8  3
 -3.662927367297e-03    9  5  8  7
  2.560966100523e-03    9  5  8  8
  1.016417702224e-10    9  5  9  4
  8.969709748232e-03    9  5  9  5
  7.553461786453e-02    9  6  1  1
  6.273409947890e-02    9  6  2  2
  6.273409947890e-02    9  6  3  3
  1.344394561713e-01    9  6  4  4
  4.738168323425e-10    9  6  5  4
  1.344394568816e-01    9  6  5  5
 -3.066744669798e-02    9  6  6  1
  1.333828148418e-01    9  6  6  6
  1.554789307794e-02    9  6  7  2
 -1.676684010945e-03    9  6  7  3
  1.443246472348e-01    9  6  7  7
  1.676684010946e-03    9  6  8  2
  1.554789307794e-02    9  6  8  3
  1.443246472348e-01    9  6  8  8
  6.867933642291e-03    9  6  9  1
  5.532912046605e-02    9  6  9  6
 -4.225572252646e-03    9  7  2  1
  4.542263968103e-04    9  7  3  1
 -3.394623408326e-04    9  7  4  2
  2.966659186325e-04    9  7  4  3
  2.966659215002e-04    9  7  5  2
  3.394623243974e-04    9  7  5  3
  1.051997840965e-03    9  7  6  2
 -1.136625340559e-04    9  7  6  3
 -4.129745452007e-03    9  7  7  1
 -4.055419135223e-03    9  7  7  4
  2.836193874714e-03    9  7  7  5
  4.835075023527e-03    9  7  7  6
  6.463418813753e-10    9  7  8  1
  2.836193831343e-03    9  7  8  4
  4.055418943911e-03    9  7  8  5
 -5.373858149000e-08    9  7  8  6
 -7.094848467081e-04    9  7  9  2
  7.648191393595e-05    9  7  9  3
  1.089015340473e-02    9  7  9  7
 -4.542263968103e-04    9  8  2  1
 -4.225572252646e-03    9  8  3  1
  2.966659186326e-04    9  8  4  2
  3.394623408328e-04    9  8  4  3
  3.394623243974e-04    9  8  5  2
 -2.966659215001e-04    9  8  5  3
  1.136625340558e-04    9  8  6  2
  1.051997840965e-03    9  8  6  3
 -6.463418794219e-10    9  8  7  1
  2.836193831343e-03    9  8  7  4
  4.055418943911e-03    9  8  7  5
  5.373858064375e-08    9  8  7  6
 -4.129745452007e-03    9  8  8  1
  4.055419135224e-03    9  8  8  4
 -2.836193874714e-03    9  8  8  5
  4.835075023527e-03    9  8  8  6
 -7.648191393597e-05    9  8  9  2
 -7.094848467080e-04    9  8  9  3
  1.089015340473e-02    9  8  9  8
  3.511231328972e-01    9  9  1  1
  3.234868332244e-01    9  9  2  2
  3.234868332244e-01    9  9  3  3
  4.038067388791e-01    9  9  4  4
  2.707157554597e-10    9  9  5  4
  4.038067392747e-01    9  9  5  5
 -2.637494315928e-02    9  9  6  1
  3.924811859047e-01    9  9  6  6
  1.772601442392e-02    9  9  7  2
 -1.910088565503e-03    9  9  7  3
  4.116097319020e-01    9  9  7  7
  1.910088565504e-03    9  9  8  2
  1.772601442392e-02    9  9  8  3
  4.116097319020e-01    9  9  8  8
  6.685661018921e-03    9  9  9  1
  4.942622642255e-02    9  9  9  6
  3.365895316783e-01    9  9  9  9
 -4.999097146099e+00    1  1  0  0
 -4.901873091303e+00    2  2  0  0
 -4.901873091303e+00    3  3  0  0
 -5.588049969919e+00    4  4  0  0
 -5.261553023966e-09    5  4  0  0
 -5.588049976844e+00    5  5  0  0
  4.823298407912e-01    6  1  0  0
 -5.187761922858e+00    6  6  0  0
 -2.123188841201e-01    7  2  0  0
  2.291439508745e-02    7  3  0  0
 -5.582889473178e+00    7  7  0  0
 -2.291439508745e-02    8  2  0  0
 -2.123188841201e-01    8  3  0  0
 -5.582889473178e+00    8  8  0  0
 -4.880807676354e-01    9  1  0  0
 -8.669288554311e-01    9  6  0  0
 -3.738944986465e+00    9  9  0  0
    -88.242206265672   0  0  0  0
