#INFO: **** input file is /projects/bamu3429/BENCHMARK/fresh_atoms/MRPT/vtz/monoxides/MnO/mrpt.py ****
import json
from pyscf import gto,scf,mcscf, fci, lo, ci, cc
from pyscf.scf import ROHF, UHF,ROKS
import numpy as np
import pandas as pd

# THIS IS WERE IT STARTS ====================================

df=json.load(open("../../../trail.json"))

spins={'ScO':1, 'TiO':2, 'VO':3, 'CrO':4, 'MnO':5, 'FeO':4, 'CuO':1}

nd={'Sc':(1,0), 'Ti':(2,0), 'V':(3,0), 'Cr':(5,0), 'Mn':(5,0), 'Fe':(5,1), 'Cu':(5,4)}

cas={'Sc':3, 'Ti':4, 'V':5, 'Cr':6, 'Mn':7, 'Fe':8, 'Cu':11}

re={'ScO':1.668, 'TiO':1.623, 'VO':1.591, 'CrO':1.621, 'MnO':1.648, 'FeO':1.616, 'CuO':1.725}

datacsv={}
for nm in ['basis','charge','method','molecule','pseudopotential',
           'totalenergy','totalenergy-stocherr','totalenergy-syserr']:
  datacsv[nm]=[]

basis='vtz'
element='Mn'

mol=gto.Mole()
mol.ecp={}
mol.basis={}
for el in [element,'O']:
  mol.ecp[el]=gto.basis.parse_ecp(df[el]['ecp'])
  mol.basis[el]=gto.basis.parse(df[el][basis])
mol.charge=0
mol.spin=spins[element+'O']
mol.build(atom="%s 0. 0. 0.; O 0. 0. %g"%(element,re[element+'O']),verbose=4)

m=ROHF(mol)
m.level_shift=1000.0
dm=m.from_chk("../../../../HF/monoxides/"+element+basis+"0.chk")
hf=m.kernel(dm)
m.analyze()

from pyscf.shciscf import shci
mc = shci.SHCISCF(m, 9, 4+cas[element])
#mc.fcisolver.conv_tol = 1e-14
mc.fcisolver.mpiprefix="mpirun -np 28"
mc.fcisolver.num_thrds=12
mc.verbose = 4
cas=mc.kernel()[0]
 
from pyscf.icmpspt import icmpspt
pt=icmpspt.icmpspt(mc,rdmM=500, PTM=1000,\
                          pttype="MRLCC",\
                          third_order=True,\
                          fully_ic=True,\
                          do_dm4=True)

datacsv['basis'].append(basis)
datacsv['charge'].append(0)
datacsv['method'].append('MRPT')
datacsv['molecule'].append(element)
datacsv['pseudopotential'].append('trail')
datacsv['totalenergy'].append(cas+pt)
datacsv['totalenergy-stocherr'].append(0.0)
datacsv['totalenergy-syserr'].append(0.0)
pd.DataFrame(datacsv).to_csv(element+".csv",index=False)

#INFO: ******************** input file end ********************


System: ('Linux', 'bnode0304.rc.int.colorado.edu', '3.10.0-514.41.1.el7.x86_64', '#1 SMP Wed Jan 17 10:26:16 EST 2018', 'x86_64', 'x86_64')  Threads 28
Python 2.7.11 (default, Mar 22 2016, 01:42:54) 
[GCC Intel(R) C++ gcc 4.8 mode]
numpy 1.11.1  scipy 0.17.1
Date: Thu Mar 29 15:36:47 2018
PySCF version 1.4
PySCF path  /projects/bamu3429/softwares/pyscf_uptodate/pyscf
GIT ORIG_HEAD e2292e6edec2b0e0024c21b81de03db1d7bd4121
GIT HEAD      ref: refs/heads/master
GIT master branch  f3591ef22170896a4cdc2aadaa6f5da388ffcadb

[INPUT] VERBOSE 4
[INPUT] num atoms = 2
[INPUT] num electrons = 21
[INPUT] charge = 0
[INPUT] spin (= nelec alpha-beta = 2S) = 5
[INPUT] symmetry False subgroup None
[INPUT]  1 Mn     0.000000000000   0.000000000000   0.000000000000 AA    0.000000000000   0.000000000000   0.000000000000 Bohr
[INPUT]  2 O      0.000000000000   0.000000000000   1.648000000000 AA    0.000000000000   0.000000000000   3.114268653283 Bohr
[INPUT] ---------------- BASIS SET ---------------- 
[INPUT] l, kappa, [nprim/nctr], expnt,             c_1 c_2 ...
[INPUT] Mn
[INPUT] 0    0    [12   /1   ]  41.19094709       0.0124
                                21.94503151       -0.141461
                                12.89081507       0.669584
                                8.14876869        -1.015431
                                3.94904809        0.149151
                                1.91298055        0.350677
                                1.10736282        0.627006
                                0.4793266         0.235349
                                0.22675293        -0.024214
                                0.10639652        0.017357
                                0.05000494        -0.005272
                                0.0234982         0.002181
[INPUT] 0    0    [12   /1   ]  41.19094709       -0.002036
                                21.94503151       0.02709
                                12.89081507       -0.142056
                                8.14876869        0.229945
                                3.94904809        -0.035538
                                1.91298055        -0.085336
                                1.10736282        -0.24355
                                0.4793266         -0.201798
                                0.22675293        0.098761
                                0.10639652        0.439512
                                0.05000494        0.524416
                                0.0234982         0.13192
[INPUT] 0    0    [12   /1   ]  41.19094709       -0.004646
                                21.94503151       0.0905
                                12.89081507       -0.585022
                                8.14876869        1.111867
                                3.94904809        -0.363063
                                1.91298055        -1.33458
                                1.10736282        0.12279
                                0.4793266         0.708339
                                0.22675293        0.760146
                                0.10639652        0.035304
                                0.05000494        -0.576692
                                0.0234982         -0.237352
[INPUT] 0    0    [12   /1   ]  41.19094709       -0.002383
                                21.94503151       0.092523
                                12.89081507       -0.733494
                                8.14876869        1.604539
                                3.94904809        -0.989623
                                1.91298055        -2.287095
                                1.10736282        2.091286
                                0.4793266         1.469902
                                0.22675293        -1.522953
                                0.10639652        -0.860672
                                0.05000494        0.655242
                                0.0234982         0.514686
[INPUT] 0    0    [1    /1   ]  0.0234982            1
[INPUT] 0    0    [1    /1   ]  0.01104221           1
[INPUT] 1    0    [12   /1   ]  60.1913049        0.000757
                                31.1792672        -0.006538
                                16.24276866       0.042902
                                8.80021485        -0.164602
                                5.33575038        0.099387
                                3.0325056         0.217723
                                1.63861968        0.443669
                                0.80258711        0.32785
                                0.40627833        0.098641
                                0.17382998        0.011768
                                0.07306386        -0.000703
                                0.03071005        0.000403
[INPUT] 1    0    [12   /1   ]  60.1913049        -0.000118
                                31.1792672        0.001208
                                16.24276866       -0.009122
                                8.80021485        0.038924
                                5.33575038        -0.027473
                                3.0325056         -0.058215
                                1.63861968        -0.124371
                                0.80258711        -0.107355
                                0.40627833        0.040741
                                0.17382998        0.350952
                                0.07306386        0.523294
                                0.03071005        0.234255
[INPUT] 1    0    [12   /1   ]  60.1913049        -0.000242
                                31.1792672        -0.00184
                                16.24276866       0.036267
                                8.80021485        -0.233302
                                5.33575038        0.180046
                                3.0325056         0.831949
                                1.63861968        0.087927
                                0.80258711        -0.875277
                                0.40627833        -0.420967
                                0.17382998        0.588099
                                0.07306386        0.409206
                                0.03071005        0.007901
[INPUT] 1    0    [12   /1   ]  60.1913049        -0.000706
                                31.1792672        -0.000652
                                16.24276866       0.057679
                                8.80021485        -0.540394
                                5.33575038        1.073974
                                3.0325056         0.867896
                                1.63861968        -1.570127
                                0.80258711        -0.63828
                                0.40627833        1.540496
                                0.17382998        -0.071965
                                0.07306386        -0.646393
                                0.03071005        -0.005855
[INPUT] 1    0    [1    /1   ]  0.03071005           1
[INPUT] 1    0    [1    /1   ]  0.01290798           1
[INPUT] 2    0    [10   /1   ]  52.56900844       0.000307
                                23.81654224       -0.007961
                                11.32693504       0.114253
                                4.99176622        0.164228
                                2.46839125        0.269996
                                1.15974738        0.320627
                                0.53124091        0.273188
                                0.24220121        0.161357
                                0.11248934        0.058244
                                0.05201371        0.009574
[INPUT] 2    0    [10   /1   ]  52.56900844       0.000329
                                23.81654224       0.004981
                                11.32693504       -0.107244
                                4.99176622        -0.205338
                                2.46839125        -0.365645
                                1.15974738        -0.091627
                                0.53124091        0.261299
                                0.24220121        0.408087
                                0.11248934        0.283046
                                0.05201371        0.07082
[INPUT] 2    0    [10   /1   ]  52.56900844       -0.002087
                                23.81654224       0.00277
                                11.32693504       0.106828
                                4.99176622        0.384896
                                2.46839125        0.360764
                                1.15974738        -0.599205
                                0.53124091        -0.495286
                                0.24220121        0.247074
                                0.11248934        0.472515
                                0.05201371        0.138768
[INPUT] 2    0    [1    /1   ]  0.05201371           1
[INPUT] 2    0    [1    /1   ]  0.02405051           1
[INPUT] 3    0    [1    /1   ]  3.339139             1
[INPUT] 3    0    [1    /1   ]  0.926076             1
[INPUT] 3    0    [1    /1   ]  0.25683768           1
[INPUT] 4    0    [1    /1   ]  2.982582             1
[INPUT] 4    0    [1    /1   ]  0.82718854           1
[INPUT] O
[INPUT] 0    0    [10   /1   ]  57.663349         -0.002794
                                35.726816         0.023976
                                22.453757         -0.115974
                                14.732301         0.288033
                                9.739917          -0.274786
                                5.042008          -0.083789
                                2.157818          0.063778
                                1.002916          0.410182
                                0.421839          0.504044
                                0.173041          0.172152
[INPUT] 0    0    [1    /1   ]  1.849096             1
[INPUT] 0    0    [1    /1   ]  0.255434             1
[INPUT] 0    0    [1    /1   ]  0.141483             1
[INPUT] 1    0    [10   /1   ]  52.47406          -0.000522
                                32.138432         0.004857
                                19.458579         -0.027749
                                11.839344         0.074258
                                7.91003           0.014369
                                3.670858          0.153479
                                1.53966           0.283685
                                0.647119          0.358201
                                0.267853          0.29559
                                0.107198          0.104889
[INPUT] 1    0    [1    /1   ]  0.622175             1
[INPUT] 1    0    [1    /1   ]  0.193391             1
[INPUT] 1    0    [1    /1   ]  0.052779             1
[INPUT] 2    0    [1    /1   ]  2.324251             1
[INPUT] 2    0    [1    /1   ]  0.656935             1
[INPUT] 2    0    [1    /1   ]  0.2072               1
[INPUT] 3    0    [1    /1   ]  1.423472             1
[INPUT] 3    0    [1    /1   ]  0.48761              1
nuclear repulsion = 28.8992408876214
number of shells = 35
number of NR pGTOs = 480
number of NR cGTOs = 133
basis = {'Mn': [[0, [41.19094709, 0.0124], [21.94503151, -0.141461], [12.89081507, 0.669584], [8.14876869, -1.015431], [3.94904809, 0.149151], [1.91298055, 0.350677], [1.10736282, 0.627006], [0.4793266, 0.235349], [0.22675293, -0.024214], [0.10639652, 0.017357], [0.05000494, -0.005272], [0.0234982, 0.002181]], [0, [41.19094709, -0.002036], [21.94503151, 0.02709], [12.89081507, -0.142056], [8.14876869, 0.229945], [3.94904809, -0.035538], [1.91298055, -0.085336], [1.10736282, -0.24355], [0.4793266, -0.201798], [0.22675293, 0.098761], [0.10639652, 0.439512], [0.05000494, 0.524416], [0.0234982, 0.13192]], [0, [41.19094709, -0.004646], [21.94503151, 0.0905], [12.89081507, -0.585022], [8.14876869, 1.111867], [3.94904809, -0.363063], [1.91298055, -1.33458], [1.10736282, 0.12279], [0.4793266, 0.708339], [0.22675293, 0.760146], [0.10639652, 0.035304], [0.05000494, -0.576692], [0.0234982, -0.237352]], [0, [41.19094709, -0.002383], [21.94503151, 0.092523], [12.89081507, -0.733494], [8.14876869, 1.604539], [3.94904809, -0.989623], [1.91298055, -2.287095], [1.10736282, 2.091286], [0.4793266, 1.469902], [0.22675293, -1.522953], [0.10639652, -0.860672], [0.05000494, 0.655242], [0.0234982, 0.514686]], [0, [0.0234982, 1.0]], [0, [0.01104221, 1.0]], [1, [60.1913049, 0.000757], [31.1792672, -0.006538], [16.24276866, 0.042902], [8.80021485, -0.164602], [5.33575038, 0.099387], [3.0325056, 0.217723], [1.63861968, 0.443669], [0.80258711, 0.32785], [0.40627833, 0.098641], [0.17382998, 0.011768], [0.07306386, -0.000703], [0.03071005, 0.000403]], [1, [60.1913049, -0.000118], [31.1792672, 0.001208], [16.24276866, -0.009122], [8.80021485, 0.038924], [5.33575038, -0.027473], [3.0325056, -0.058215], [1.63861968, -0.124371], [0.80258711, -0.107355], [0.40627833, 0.040741], [0.17382998, 0.350952], [0.07306386, 0.523294], [0.03071005, 0.234255]], [1, [60.1913049, -0.000242], [31.1792672, -0.00184], [16.24276866, 0.036267], [8.80021485, -0.233302], [5.33575038, 0.180046], [3.0325056, 0.831949], [1.63861968, 0.087927], [0.80258711, -0.875277], [0.40627833, -0.420967], [0.17382998, 0.588099], [0.07306386, 0.409206], [0.03071005, 0.007901]], [1, [60.1913049, -0.000706], [31.1792672, -0.000652], [16.24276866, 0.057679], [8.80021485, -0.540394], [5.33575038, 1.073974], [3.0325056, 0.867896], [1.63861968, -1.570127], [0.80258711, -0.63828], [0.40627833, 1.540496], [0.17382998, -0.071965], [0.07306386, -0.646393], [0.03071005, -0.005855]], [1, [0.03071005, 1.0]], [1, [0.01290798, 1.0]], [2, [52.56900844, 0.000307], [23.81654224, -0.007961], [11.32693504, 0.114253], [4.99176622, 0.164228], [2.46839125, 0.269996], [1.15974738, 0.320627], [0.53124091, 0.273188], [0.24220121, 0.161357], [0.11248934, 0.058244], [0.05201371, 0.009574]], [2, [52.56900844, 0.000329], [23.81654224, 0.004981], [11.32693504, -0.107244], [4.99176622, -0.205338], [2.46839125, -0.365645], [1.15974738, -0.091627], [0.53124091, 0.261299], [0.24220121, 0.408087], [0.11248934, 0.283046], [0.05201371, 0.07082]], [2, [52.56900844, -0.002087], [23.81654224, 0.00277], [11.32693504, 0.106828], [4.99176622, 0.384896], [2.46839125, 0.360764], [1.15974738, -0.599205], [0.53124091, -0.495286], [0.24220121, 0.247074], [0.11248934, 0.472515], [0.05201371, 0.138768]], [2, [0.05201371, 1.0]], [2, [0.02405051, 1.0]], [3, [3.339139, 1.0]], [3, [0.926076, 1.0]], [3, [0.25683768, 1.0]], [4, [2.982582, 1.0]], [4, [0.82718854, 1.0]]], 'O': [[0, [57.663349, -0.002794], [35.726816, 0.023976], [22.453757, -0.115974], [14.732301, 0.288033], [9.739917, -0.274786], [5.042008, -0.083789], [2.157818, 0.063778], [1.002916, 0.410182], [0.421839, 0.504044], [0.173041, 0.172152]], [0, [1.849096, 1.0]], [0, [0.255434, 1.0]], [0, [0.141483, 1.0]], [1, [52.47406, -0.000522], [32.138432, 0.004857], [19.458579, -0.027749], [11.839344, 0.074258], [7.91003, 0.014369], [3.670858, 0.153479], [1.53966, 0.283685], [0.647119, 0.358201], [0.267853, 0.29559], [0.107198, 0.104889]], [1, [0.622175, 1.0]], [1, [0.193391, 1.0]], [1, [0.052779, 1.0]], [2, [2.324251, 1.0]], [2, [0.656935, 1.0]], [2, [0.2072, 1.0]], [3, [1.423472, 1.0]], [3, [0.48761, 1.0]]]}
ecp = {'Mn': [10, [[-1, [[], [[18.43432244, 15.0]], [[12.74175213, 31301.56494509], [11.67410914, -4576.3546318], [12.90376156, -26766.73507377], [4.97171871, -4.09339906]], [[8.79264819, 276.51483655]]]], [0, [[], [], [[13.56187871, 2771.78238977], [9.44812535, 12553.69429672], [10.76503846, 1886.79316638], [11.65345594, -9260.55332402], [8.48073002, -8943.95003535], [6.96707028, 1041.73211249]], []]], [1, [[], [], [[12.71342918, -23181.32761179], [18.03174513, 111577.22220216], [16.6827906, -42399.84416473], [13.18867124, 16025.79106608], [18.42861128, -76264.60573764], [12.90928974, 14270.47832347]], []]], [2, [[], [], [[8.13384228, -382.83904013], [14.28699222, 5676.99013005], [11.14406629, 35338.03440844], [11.37674978, -38881.44458388], [18.25818233, 3550.6602642], [17.73146307, -5317.47975296]], []]]]], 'O': [2, [[-1, [[], [[10.27717748, 6.0]], [[15.99566749, 1232.50197768], [10.46901775, -696.47008301], [14.6384801, -2654.22657081], [12.57591181, 2101.67732548]], [[7.77739102, 61.66306486]]]], [0, [[], [], [[12.39426073, -656683.37638839], [12.38126171, 657858.57667068], [8.57671033, 511.50098405], [9.89256508, -2579.54665641], [28.05641604, -57.68129584], [17.24753607, 970.30940152]], []]], [1, [[], [], [[14.78918914, -363027.24258186], [14.82014018, 361852.52314043], [22.89622221, -1300.20069256], [8.51331893, -181.96869573], [11.48609758, 2194.87589959], [27.22017524, 451.19906206]], []]]]]}
CPU time:         3.62


******** <class 'pyscf.scf.rohf.ROHF'> flags ********
method = ROHF
initial guess = minao
damping factor = 0
level shift factor = 1000.0
DIIS = <class 'pyscf.scf.diis.CDIIS'>
DIIS start cycle = 1
DIIS space = 8
SCF tol = 1e-09
SCF gradient tol = None
max. SCF cycles = 50
direct_scf = True
direct_scf_tol = 1e-13
chkfile to save SCF result = /projects/bamu3429/BENCHMARK/fresh_atoms/MRPT/vtz/monoxides/MnO/tmpHFpx32
max_memory 4000 MB (current use 124 MB)
num. doubly occ = 8  num. singly occ = 5
Set gradient conv threshold to 3.16228e-05
init E= -119.139128022929
  HOMO = 499.883669069019  LUMO = 999.974273727879
cycle= 1 E= -119.13912802293  delta_E= -7.39e-13  |g|= 1.54e-05  |ddm|= 5.77e-08
  HOMO = -0.116330935368519  LUMO = -0.0257262724865568
Extra cycle  E= -119.139128023328  delta_E= -3.98e-10  |g|= 1.55e-05  |ddm|= 6.87e-05
converged SCF energy = -119.139128023328
**** MO energy ****
                Roothaan           | alpha              | beta
MO #1   energy= -4.02186601804755  | -4.22636238230743  | -3.81736965780094  occ= 2
MO #2   energy= -2.53502675829398  | -2.77325682230325  | -2.29679683827813  occ= 2
MO #3   energy= -2.53089977776463  | -2.781131275941    | -2.28066828913249  occ= 2
MO #4   energy= -2.53089977776462  | -2.78113127594099  | -2.28066828913248  occ= 2
MO #5   energy= -1.10932071507461  | -1.12154240609121  | -1.0970990568385   occ= 2
MO #6   energy= -0.393597948271898 | -0.419587131582458 | -0.367612178154998 occ= 2
MO #7   energy= -0.382495688359357 | -0.405961207823393 | -0.359029412867431 occ= 2
MO #8   energy= -0.382495688359356 | -0.405961207823393 | -0.359029412867432 occ= 2
MO #9   energy= -0.145571239693974 | -0.63160584833534  | 0.340463694575877  occ= 1
MO #10  energy= -0.145571239693889 | -0.631605848335666 | 0.340463694575995  occ= 1
MO #11  energy= -0.120896419230919 | -0.506098116189876 | 0.264298326034656  occ= 1
MO #12  energy= -0.11633093536852  | -0.582525983001637 | 0.34986330288517   occ= 1
MO #13  energy= -0.116330935368519 | -0.582525983001638 | 0.349863302885171  occ= 1
MO #14  energy= -0.0257262724865568 | -0.0373360899584593 | -0.0141133802219271 occ= 0
MO #15  energy= 0.0174750669741592 | 0.0158358542058078 | 0.0191143543130012 occ= 0
MO #16  energy= 0.0174750669741604 | 0.0158358542058081 | 0.0191143543130023 occ= 0
MO #17  energy= 0.0207789429014119 | 0.015619068814981  | 0.0259397435818747 occ= 0
MO #18  energy= 0.0367433950752681 | 0.0359126553213384 | 0.0375743506025946 occ= 0
MO #19  energy= 0.0680820128075883 | 0.0641541250971084 | 0.0720099222722833 occ= 0
MO #20  energy= 0.0680820128075905 | 0.0641541250971088 | 0.0720099222722832 occ= 0
MO #21  energy= 0.0696317664214027 | 0.0693040177327102 | 0.0699595076816003 occ= 0
MO #22  energy= 0.0696317664214046 | 0.0693040177327105 | 0.0699595076815993 occ= 0
MO #23  energy= 0.0762008449691605 | 0.0752109101444923 | 0.0771909920725783 occ= 0
MO #24  energy= 0.0857559242462725 | 0.0813927224313577 | 0.0901191668664948 occ= 0
MO #25  energy= 0.0857559242462794 | 0.0813927224313602 | 0.090119166866504  occ= 0
MO #26  energy= 0.140937375436513  | 0.135156442865668  | 0.146718238036265  occ= 0
MO #27  energy= 0.142983712397428  | 0.130667450401557  | 0.155301834916311  occ= 0
MO #28  energy= 0.201403636352289  | 0.19564461835073   | 0.207162619643742  occ= 0
MO #29  energy= 0.201403636352332  | 0.195644618350776  | 0.207162619643781  occ= 0
MO #30  energy= 0.213750264568403  | 0.207665017436875  | 0.219835435949928  occ= 0
MO #31  energy= 0.213750264568434  | 0.207665017436884  | 0.21983543594992   occ= 0
MO #32  energy= 0.227862902214201  | 0.223747613426541  | 0.231978837354925  occ= 0
MO #33  energy= 0.280967470370656  | 0.263032466392449  | 0.298902447513961  occ= 0
MO #34  energy= 0.280967470370672  | 0.263032466392401  | 0.298902447514043  occ= 0
MO #35  energy= 0.288002399172634  | 0.282006881796586  | 0.293997905888948  occ= 0
MO #36  energy= 0.28800239917264   | 0.282006881796654  | 0.293997905888895  occ= 0
MO #37  energy= 0.292215613849616  | 0.286837279203466  | 0.297594641806646  occ= 0
MO #38  energy= 0.490319790352358  | 0.47070658150578   | 0.509934443159548  occ= 0
MO #39  energy= 0.741690476288876  | 0.735063532992608  | 0.748317426978439  occ= 0
MO #40  energy= 0.741690476288883  | 0.735063532992606  | 0.748317426978423  occ= 0
MO #41  energy= 0.768256949344686  | 0.738261918110941  | 0.798252384119816  occ= 0
MO #42  energy= 0.779258303903915  | 0.761108912683405  | 0.79740803229338   occ= 0
MO #43  energy= 0.799652422671359  | 0.766882889663857  | 0.832421948199038  occ= 0
MO #44  energy= 0.799652422671375  | 0.766882889663872  | 0.832421948199059  occ= 0
MO #45  energy= 0.865193253508667  | 0.815944943612492  | 0.914441372118548  occ= 0
MO #46  energy= 0.865193253508814  | 0.815944943612557  | 0.91444137211859   occ= 0
MO #47  energy= 0.897068594486262  | 0.881405338542224  | 0.912731843357984  occ= 0
MO #48  energy= 0.917298317762855  | 0.896180632603997  | 0.938416002921713  occ= 0
MO #49  energy= 0.917298317762857  | 0.896180632604001  | 0.938416002921717  occ= 0
MO #50  energy= 0.942591706574444  | 0.936318998744636  | 0.948864408235807  occ= 0
MO #51  energy= 0.942591706574447  | 0.93631899874464   | 0.94886440823581   occ= 0
MO #52  energy= 0.994616660221093  | 0.979844162044835  | 1.00938952946798   occ= 0
MO #53  energy= 1.07632494418339   | 1.06773603613281   | 1.08491385603813   occ= 0
MO #54  energy= 1.07632494418339   | 1.06773603613281   | 1.08491385603813   occ= 0
MO #55  energy= 1.11013047561321   | 1.09098893104833   | 1.12927203469846   occ= 0
MO #56  energy= 1.11013047561325   | 1.09098893104833   | 1.12927203469848   occ= 0
MO #57  energy= 1.52560474828502   | 1.48343995221637   | 1.56776949820292   occ= 0
MO #58  energy= 1.52560474828509   | 1.48343995221644   | 1.56776949820299   occ= 0
MO #59  energy= 1.78608122217535   | 1.76806680868735   | 1.80409582117354   occ= 0
MO #60  energy= 1.7942687779575    | 1.75441430502306   | 1.83412332941229   occ= 0
MO #61  energy= 1.7942687779575    | 1.75441430502308   | 1.83412332941229   occ= 0
MO #62  energy= 1.91002519032439   | 1.8819682745962    | 1.93808210592252   occ= 0
MO #63  energy= 2.15548907235767   | 2.15340501697522   | 2.15757312774011   occ= 0
MO #64  energy= 2.15548907235767   | 2.15340501697522   | 2.15757312774011   occ= 0
MO #65  energy= 2.25215024918108   | 2.2478923674903    | 2.25640813106079   occ= 0
MO #66  energy= 2.25215024918109   | 2.2478923674903    | 2.2564081310608    occ= 0
MO #67  energy= 2.2780205283648    | 2.26660767942045   | 2.28943344161886   occ= 0
MO #68  energy= 2.37982624813971   | 2.3729145460417    | 2.38673794973874   occ= 0
MO #69  energy= 2.37982624813971   | 2.3729145460417    | 2.38673794973874   occ= 0
MO #70  energy= 2.42380440941271   | 2.42016870102054   | 2.42744011761135   occ= 0
MO #71  energy= 2.42380440941271   | 2.42016870102053   | 2.42744011761135   occ= 0
MO #72  energy= 2.61383328147883   | 2.59466621881097   | 2.63300037747302   occ= 0
MO #73  energy= 2.77237345117244   | 2.73860822181756   | 2.80613868562116   occ= 0
MO #74  energy= 2.77237345117247   | 2.7386082218176    | 2.8061386856212    occ= 0
MO #75  energy= 2.88265753986292   | 2.84280461007922   | 2.92251055378968   occ= 0
MO #76  energy= 3.1312045100506    | 3.03477179359442   | 3.22763722650678   occ= 0
MO #77  energy= 3.1312045100506    | 3.03477179359442   | 3.22763722650678   occ= 0
MO #78  energy= 3.17899203278821   | 3.08700646796445   | 3.27097759172395   occ= 0
MO #79  energy= 3.17899203278823   | 3.08700646796447   | 3.27097759172396   occ= 0
MO #80  energy= 3.24108869066033   | 3.17379683474567   | 3.30838057470747   occ= 0
MO #81  energy= 3.3621279351656    | 3.29190005476817   | 3.43235580087198   occ= 0
MO #82  energy= 3.3621279351656    | 3.29190005476816   | 3.43235580087198   occ= 0
MO #83  energy= 3.75045161803747   | 3.71125151515787   | 3.78965172091707   occ= 0
MO #84  energy= 3.75045161803748   | 3.71125151515789   | 3.78965172091708   occ= 0
MO #85  energy= 3.77181380098372   | 3.75902984270291   | 3.78459775555302   occ= 0
MO #86  energy= 3.77181380098375   | 3.75902984270293   | 3.78459775555306   occ= 0
MO #87  energy= 3.79715265814518   | 3.76178753443203   | 3.83251778185832   occ= 0
MO #88  energy= 3.79715265814518   | 3.76178753443203   | 3.83251778185832   occ= 0
MO #89  energy= 3.81968507212478   | 3.72049962208095   | 3.91887045689932   occ= 0
MO #90  energy= 3.8196850721249    | 3.72049962208113   | 3.91887045689934   occ= 0
MO #91  energy= 4.00403363101084   | 3.97746617161564   | 4.03060110695768   occ= 0
MO #92  energy= 4.08381266347584   | 4.05204587965263   | 4.11557944659388   occ= 0
MO #93  energy= 4.08381266347584   | 4.05204587965263   | 4.11557944659389   occ= 0
MO #94  energy= 4.33478374294107   | 4.25534600352194   | 4.41422147164712   occ= 0
MO #95  energy= 4.33478374294107   | 4.25534600352194   | 4.41422147164713   occ= 0
MO #96  energy= 4.47006353450743   | 4.43975518682169   | 4.50037188040512   occ= 0
MO #97  energy= 4.47006353450743   | 4.43975518682168   | 4.50037188040511   occ= 0
MO #98  energy= 4.48606771822533   | 4.43418410860837   | 4.53795133192558   occ= 0
MO #99  energy= 4.86917975739285   | 4.83454290169563   | 4.90381661503223   occ= 0
MO #100 energy= 5.48425342581827   | 5.43124409125517   | 5.5372627787835    occ= 0
MO #101 energy= 6.58611014996683   | 6.58374965772867   | 6.58847064220497   occ= 0
MO #102 energy= 6.58611014996683   | 6.58374965772868   | 6.58847064220498   occ= 0
MO #103 energy= 6.68448123807873   | 6.68278587930855   | 6.68617659684901   occ= 0
MO #104 energy= 6.68448123807874   | 6.68278587930855   | 6.686176596849     occ= 0
MO #105 energy= 6.81908787426709   | 6.80712551606021   | 6.83105023232784   occ= 0
MO #106 energy= 6.82202899801241   | 6.8155964728904    | 6.82846152314259   occ= 0
MO #107 energy= 6.82202899801241   | 6.81559647289041   | 6.8284615231426    occ= 0
MO #108 energy= 7.16833604015276   | 7.16429333749412   | 7.17237874281203   occ= 0
MO #109 energy= 7.16833604015277   | 7.16429333749414   | 7.17237874281205   occ= 0
MO #110 energy= 7.31558995512938   | 7.30527545578282   | 7.32590445467431   occ= 0
MO #111 energy= 7.31558995512938   | 7.30527545578282   | 7.32590445467431   occ= 0
MO #112 energy= 7.66179331904105   | 7.65080818296149   | 7.67277845537143   occ= 0
MO #113 energy= 8.04968583538      | 7.98749551196081   | 8.11187615995249   occ= 0
MO #114 energy= 8.04968583538      | 7.9874955119608    | 8.11187615995249   occ= 0
MO #115 energy= 8.70082659619817   | 8.63189064859696   | 8.76976254443962   occ= 0
MO #116 energy= 9.94705547823377   | 9.82538031301167   | 10.0687306434558   occ= 0
MO #117 energy= 9.94705547823377   | 9.8253803130117    | 10.0687306434559   occ= 0
MO #118 energy= 9.97234155953775   | 9.84740320729694   | 10.0972799108369   occ= 0
MO #119 energy= 9.97234155953775   | 9.84740320729696   | 10.0972799108369   occ= 0
MO #120 energy= 10.1357539518606   | 10.0226852674799   | 10.2488226369496   occ= 0
MO #121 energy= 10.1357539518606   | 10.0226852674799   | 10.2488226369497   occ= 0
MO #122 energy= 10.5126328522953   | 10.418851004307    | 10.6064147017909   occ= 0
MO #123 energy= 12.8752730639656   | 12.8390801570125   | 12.911465970445    occ= 0
MO #124 energy= 13.1248261135743   | 13.0444793973398   | 13.2051728298089   occ= 0
MO #125 energy= 13.1248261135743   | 13.0444793973398   | 13.2051728298089   occ= 0
MO #126 energy= 13.1379002715016   | 13.0557883409195   | 13.2200122020838   occ= 0
MO #127 energy= 13.1379002715016   | 13.0557883409195   | 13.2200122020837   occ= 0
MO #128 energy= 13.2207564635434   | 13.1415604641009   | 13.2999524627169   occ= 0
MO #129 energy= 13.2207564635434   | 13.141560464101    | 13.2999524627169   occ= 0
MO #130 energy= 13.3736712276339   | 13.2981936087734   | 13.4491488461801   occ= 0
MO #131 energy= 13.3736712276339   | 13.2981936087733   | 13.4491488461801   occ= 0
MO #132 energy= 13.7369310882876   | 13.6892751951204   | 13.7845869807513   occ= 0
MO #133 energy= 14.2104890955195   | 14.1876375470337   | 14.2333406440096   occ= 0
 ** Mulliken pop on meta-lowdin orthogonal AOs  **
 ** Mulliken pop  **
pop of  0Mn 3s        1.99990
pop of  0Mn 4s        0.45531
pop of  0Mn 5s        0.01277
pop of  0Mn 6s        0.00297
pop of  0Mn 7s        0.00450
pop of  0Mn 8s        0.00155
pop of  0Mn 3px       1.99957
pop of  0Mn 3py       1.99957
pop of  0Mn 3pz       1.99853
pop of  0Mn 4px       0.04030
pop of  0Mn 4py       0.04030
pop of  0Mn 4pz       0.00316
pop of  0Mn 5px       0.00186
pop of  0Mn 5py       0.00186
pop of  0Mn 5pz       0.00135
pop of  0Mn 6px       0.00005
pop of  0Mn 6py       0.00005
pop of  0Mn 6pz       0.00036
pop of  0Mn 7px       0.00428
pop of  0Mn 7py       0.00428
pop of  0Mn 7pz       0.00285
pop of  0Mn 8px       0.00053
pop of  0Mn 8py       0.00053
pop of  0Mn 8pz       0.00032
pop of  0Mn 3dxy      0.99691
pop of  0Mn 3dyz      1.05951
pop of  0Mn 3dz^2     1.02018
pop of  0Mn 3dxz      1.05951
pop of  0Mn 3dx2-y2    0.99691
pop of  0Mn 4dxy      0.00189
pop of  0Mn 4dyz      0.00299
pop of  0Mn 4dz^2     0.00033
pop of  0Mn 4dxz      0.00299
pop of  0Mn 4dx2-y2    0.00189
pop of  0Mn 5dxy      0.00014
pop of  0Mn 5dyz      0.00011
pop of  0Mn 5dz^2     0.00104
pop of  0Mn 5dxz      0.00011
pop of  0Mn 5dx2-y2    0.00014
pop of  0Mn 6dxy      0.00049
pop of  0Mn 6dyz      0.00147
pop of  0Mn 6dz^2     0.00101
pop of  0Mn 6dxz      0.00147
pop of  0Mn 6dx2-y2    0.00049
pop of  0Mn 7dxy      0.00003
pop of  0Mn 7dyz      0.00013
pop of  0Mn 7dz^2     0.00037
pop of  0Mn 7dxz      0.00013
pop of  0Mn 7dx2-y2    0.00003
pop of  0Mn 4fy^3     0.00000
pop of  0Mn 4fxyz     0.00001
pop of  0Mn 4fyz^2    0.00003
pop of  0Mn 4fz^3     0.00005
pop of  0Mn 4fxz^2    0.00003
pop of  0Mn 4fzx^2    0.00001
pop of  0Mn 4fx^3     0.00000
pop of  0Mn 5fy^3     0.00000
pop of  0Mn 5fxyz     0.00011
pop of  0Mn 5fyz^2    0.00039
pop of  0Mn 5fz^3     0.00038
pop of  0Mn 5fxz^2    0.00039
pop of  0Mn 5fzx^2    0.00011
pop of  0Mn 5fx^3     0.00000
pop of  0Mn 6fy^3     0.00000
pop of  0Mn 6fxyz     0.00018
pop of  0Mn 6fyz^2    0.00015
pop of  0Mn 6fz^3     0.00009
pop of  0Mn 6fxz^2    0.00015
pop of  0Mn 6fzx^2    0.00018
pop of  0Mn 6fx^3     0.00000
pop of  0Mn 5g-4      0.00000
pop of  0Mn 5g-3      0.00000
pop of  0Mn 5g-2      0.00000
pop of  0Mn 5g-1      0.00000
pop of  0Mn 5g 0      0.00000
pop of  0Mn 5g 1      0.00000
pop of  0Mn 5g 2      0.00000
pop of  0Mn 5g 3      0.00000
pop of  0Mn 5g 4      0.00000
pop of  0Mn 6g-4      0.00000
pop of  0Mn 6g-3      0.00000
pop of  0Mn 6g-2      0.00000
pop of  0Mn 6g-1      0.00003
pop of  0Mn 6g 0      0.00008
pop of  0Mn 6g 1      0.00003
pop of  0Mn 6g 2      0.00000
pop of  0Mn 6g 3      0.00000
pop of  0Mn 6g 4      0.00000
pop of  1O 2s        1.89734
pop of  1O 3s        0.00053
pop of  1O 4s        0.00090
pop of  1O 5s        0.00350
pop of  1O 2px       1.84490
pop of  1O 2py       1.84490
pop of  1O 2pz       1.57787
pop of  1O 3px       0.00004
pop of  1O 3py       0.00004
pop of  1O 3pz       0.00018
pop of  1O 4px       0.01616
pop of  1O 4py       0.01616
pop of  1O 4pz       0.00502
pop of  1O 5px       0.01293
pop of  1O 5py       0.01293
pop of  1O 5pz       0.00296
pop of  1O 3dxy      0.00000
pop of  1O 3dyz      0.00028
pop of  1O 3dz^2     0.00040
pop of  1O 3dxz      0.00028
pop of  1O 3dx2-y2    0.00000
pop of  1O 4dxy      0.00000
pop of  1O 4dyz      0.00301
pop of  1O 4dz^2     0.00247
pop of  1O 4dxz      0.00301
pop of  1O 4dx2-y2    0.00000
pop of  1O 5dxy      0.00017
pop of  1O 5dyz      0.01043
pop of  1O 5dz^2     0.00163
pop of  1O 5dxz      0.01043
pop of  1O 5dx2-y2    0.00017
pop of  1O 4fy^3     0.00000
pop of  1O 4fxyz     0.00000
pop of  1O 4fyz^2    0.00006
pop of  1O 4fz^3     0.00009
pop of  1O 4fxz^2    0.00006
pop of  1O 4fzx^2    0.00000
pop of  1O 4fx^3     0.00000
pop of  1O 5fy^3     0.00000
pop of  1O 5fxyz     0.00006
pop of  1O 5fyz^2    0.00079
pop of  1O 5fz^3     0.00001
pop of  1O 5fxz^2    0.00079
pop of  1O 5fzx^2    0.00006
pop of  1O 5fx^3     0.00000
 ** Mulliken atomic charges  **
charge of  0Mn =      1.27058
charge of  1O =     -1.27058

******** <class 'pyscf.mcscf.mc1step.CASSCF'> flags ********
CAS (8e+3e, 9o), ncore = 5, nvir = 119
max_cycle_macro = 50
max_cycle_micro = 4
conv_tol = 1e-07
conv_tol_grad = None
orbital rotation max_stepsize = 0.02
augmented hessian ah_max_cycle = 30
augmented hessian ah_conv_tol = 1e-12
augmented hessian ah_linear dependence = 1e-14
augmented hessian ah_level shift = 0
augmented hessian ah_start_tol = 2.5
augmented hessian ah_start_cycle = 3
augmented hessian ah_grad_trust_region = 3
kf_trust_region = 3
kf_interval = 4
ci_response_space = 4
ci_grad_trust_region = 3
with_dep4 0
natorb = False
canonicalization = True
chkfile = ./scratch/93507/tmpmW2oPl
max_memory 4000 MB (current use 534 MB)
internal_rotation = False

******** SHCI flags ********
executable             = /home/bamu3429/softwares/dice/Dice
mpiprefix              = mpirun -np 28
scratchDirectory       = ./scratch/93507
integralFile           = ./FCIDUMP
configFile             = ./input.dat
outputFile             = ./output.dat
maxIter                = 6
sweep_iter             = []
sweep_epsilon          = []
nPTiter                = 0
Stochastic             = True
fullrestart            = False
restart                = False
num_thrds              = 12
memory                 = None

CASCI E = -119.14775184832  S^2 = 8.7500000
Set conv_tol_grad to 0.000316228
macro iter 1 (21 JK  4 micro), CASSCF E = -119.204198783163  dE = -0.056446935  S^2 = 8.7500000
               |grad[o]|=0.062  |grad[c]|= None  |ddm|=0.429
macro iter 2 (13 JK  4 micro), CASSCF E = -119.226133509398  dE = -0.021934726  S^2 = 8.7500000
               |grad[o]|=0.154  |grad[c]|= None  |ddm|= 0.26
macro iter 3 (9 JK  4 micro), CASSCF E = -119.226392116413  dE = -0.00025860702  S^2 = 8.7500000
               |grad[o]|=0.0172  |grad[c]|= None  |ddm|=0.0266
macro iter 4 (8 JK  3 micro), CASSCF E = -119.226392584647  dE = -4.6823358e-07  S^2 = 8.7500000
               |grad[o]|=0.000633  |grad[c]|= None  |ddm|=0.000896
macro iter 5 (3 JK  1 micro), CASSCF E = -119.226392588319  dE = -3.6720991e-09  S^2 = 8.7500000
               |grad[o]|=5.97e-05  |grad[c]|= None  |ddm|=    0
1-step CASSCF converged in 5 macro (54 JK 16 micro) steps
CASSCF canonicalization
CASSCF energy = -119.226392588319


--------------------------------------------------
                 ICMPSPT CALCULATION              
--------------------------------------------------

Perturbation type: MRLCC
With fully internally contracted scheme
With third order correction

Preparing necessary RDMs
......production of RDMs took      36.31 sec
Reading binary 4RDM from DICE
......reading the RDM took         29.05 sec

(GOOD) Trace 4RDM:   7920.0 =   11*   10*    9*    8
(GOOD) Trace 3RDM:    990.0 =   11*   10*    9
(GOOD) Trace 2RDM:    110.0 =   11*   10
(GOOD) Trace 1RDM:     11.0 =   11

Producing the integrals
......production of INT took     155.68 sec

Energy_core =  -117.141447153
Energy      =  -119.226392588

WARNING: Have to use natural orbitals from CAASCF
         offdiagonal elements: 0.789181182332

Basic ingredients written to int/
......savings of INGREDIENTS took      39.58 sec

Second-order:
perturber CCVV --        -0.109198811
perturber CCAV --        -0.049031886
perturber ACVV --        -0.216786013
perturber CCAA --        -0.029505573
perturber AAVV --        -0.233687671
perturber CAAV --        -0.147459524
perturber AAAV --        -0.052196452
perturber AAAC --        -0.001967813
Total:                   -0.839833743

Third-order:             -0.000635861

Total PT       --        -0.840469603

