 &FCI NORB=9 ,NELEC=7 ,MS2=1,
  ORBSYM=1,1,1,1,1,1,1,1,1,
  ISYM=1,
 &END
  6.505893083711e-01    1  1  1  1
  2.944570796478e-02    2  1  2  1
  5.794241661539e-01    2  2  1  1
  6.289911495078e-01    2  2  2  2
  2.944570796478e-02    3  1  3  1
  6.804338485028e-08    3  2  2  2
  2.805280073580e-02    3  2  3  2
  5.794241661539e-01    3  3  1  1
  5.728853059506e-01    3  3  2  2
 -6.804338149698e-08    3  3  3  2
  6.289911495079e-01    3  3  3  3
  2.327735965245e-02    4  1  1  1
  1.862321485939e-02    4  1  2  2
  1.862321485939e-02    4  1  3  3
  3.633625233194e-03    4  1  4  1
  7.710022005927e-05    4  2  2  1
  1.015589121205e-06    4  2  3  1
  1.538998283714e-03    4  2  4  2
 -1.015589121538e-06    4  3  2  1
  7.710022006011e-05    4  3  3  1
  1.538998283713e-03    4  3  4  3
  2.112327776260e-01    4  4  1  1
  1.971223079172e-01    4  4  2  2
  1.971223079172e-01    4  4  3  3
 -1.286830234650e-03    4  4  4  1
  2.486745288938e-01    4  4  4  4
  4.732509198734e-03    5  1  2  1
 -1.020220828827e-02    5  1  3  1
  2.794940892164e-04    5  1  4  2
 -6.043878762487e-04    5  1  4  3
  1.378699530289e-02    5  1  5  1
  6.362760848597e-02    5  2  1  1
  7.794398794751e-02    5  2  2  2
 -1.042219708106e-02    5  2  3  2
  6.827160634035e-02    5  2  3  3
  1.813533209938e-03    5  2  4  1
 -1.002368550040e-02    5  2  4  4
  3.877052564044e-02    5  2  5  2
 -1.374122162271e-01    5  3  1  1
 -1.474306652650e-01    5  3  2  2
  4.836379240675e-03    5  3  3  2
 -1.682759414375e-01    5  3  3  3
 -3.918436803671e-03    5  3  4  1
  2.161034205126e-02    5  3  4  4
 -5.468340972476e-02    5  3  5  2
  1.315330042128e-01    5  3  5  3
  9.973668185518e-04    5  4  2  1
 -2.154606346434e-03    5  4  3  1
 -9.671046310529e-04    5  4  4  2
  2.084677518709e-03    5  4  4  3
 -6.125486858259e-05    5  4  5  1
  4.835829657501e-03    5  4  5  4
  5.116274204671e-01    5  5  1  1
  4.931419409017e-01    5  5  2  2
 -1.365168879538e-02    5  5  3  2
  5.163078191190e-01    5  5  3  3
  1.795971958268e-02    5  5  4  1
  2.309923199849e-01    5  5  4  4
  4.456528439776e-02    5  5  5  2
 -9.631807374748e-02    5  5  5  3
  5.077823137572e-01    5  5  5  5
 -1.020220828827e-02    6  1  2  1
 -4.732509198733e-03    6  1  3  1
 -6.043878762491e-04    6  1  4  2
 -2.794940892165e-04    6  1  4  3
  1.947714152448e-06    6  1  5  4
  1.378699530289e-02    6  1  6  1
 -1.374122162271e-01    6  2  1  1
 -1.682759414375e-01    6  2  2  2
 -4.836379240676e-03    6  2  3  2
 -1.474306652650e-01    6  2  3  3
 -3.918436803670e-03    6  2  4  1
  2.161034205127e-02    6  2  4  4
 -5.468341634965e-02    6  2  5  2
  1.046369746167e-01    6  2  5  3
 -8.597653355636e-02    6  2  5  5
  1.315330042129e-01    6  2  6  2
 -6.362760848597e-02    6  3  1  1
 -6.827160634035e-02    6  3  2  2
 -1.042219708106e-02    6  3  3  2
 -7.794398794752e-02    6  3  3  3
 -1.813533209938e-03    6  3  4  1
  1.002368550040e-02    6  3  4  4
 -1.187569637536e-02    6  3  5  2
  5.468341634964e-02    6  3  5  3
 -3.979636624514e-02    6  3  5  5
  5.468340972476e-02    6  3  6  2
  3.877052564044e-02    6  3  6  3
 -2.154606346435e-03    6  4  2  1
 -9.973668185520e-04    6  4  3  1
  2.084677518711e-03    6  4  4  2
  9.671046310528e-04    6  4  4  3
 -1.947714152617e-06    6  4  5  1
 -6.125486858277e-05    6  4  6  1
  4.835829657503e-03    6  4  6  4
 -1.365169343614e-02    6  5  2  2
  1.158217548682e-02    6  5  3  2
  1.365169343613e-02    6  5  3  3
 -5.170550091801e-03    6  5  5  2
 -2.384580487173e-03    6  5  5  3
  5.278053271040e-07    6  5  5  5
  2.384580487178e-03    6  5  6  2
 -5.170550091800e-03    6  5  6  3
  1.793380420608e-02    6  5  6  5
  5.116274204671e-01    6  6  1  1
  5.163078191190e-01    6  6  2  2
  1.365168879539e-02    6  6  3  2
  4.931419409017e-01    6  6  3  3
  1.795971958268e-02    6  6  4  1
  2.309923199849e-01    6  6  4  4
  3.979636624514e-02    6  6  5  2
 -8.597653355636e-02    6  6  5  3
  4.719129035404e-01    6  6  5  5
 -9.631807374749e-02    6  6  6  2
 -4.456528439776e-02    6  6  6  3
 -5.278053360179e-07    6  6  6  5
  5.077823137573e-01    6  6  6  6
 -6.198439530652e-02    7  1  1  1
 -4.248907208413e-02    7  1  2  2
 -4.248907208414e-02    7  1  3  3
 -4.935812838985e-03    7  1  4  1
 -2.849423607065e-02    7  1  4  4
 -1.015397137579e-02    7  1  5  2
  2.199348692627e-02    7  1  5  3
 -6.844278078919e-02    7  1  5  5
  2.199348692626e-02    7  1  6  2
  1.015397137579e-02    7  1  6  3
 -6.844278078921e-02    7  1  6  6
  7.608361484091e-02    7  1  7  1
  4.098240775178e-03    7  2  2  1
 -1.832918062610e-06    7  2  3  1
 -7.698994547375e-04    7  2  4  2
 -8.812868707607e-07    7  2  4  3
 -2.265059854180e-03    7  2  5  1
  1.054443682288e-03    7  2  5  4
  4.913410883583e-03    7  2  6  1
 -2.276724282558e-03    7  2  6  4
  1.545484730167e-02    7  2  7  2
  1.832918074763e-06    7  3  2  1
  4.098240775156e-03    7  3  3  1
  8.812868650884e-07    7  3  4  2
 -7.698994547273e-04    7  3  4  3
  4.913410883571e-03    7  3  5  1
 -2.276724282534e-03    7  3  5  4
  2.265059854182e-03    7  3  6  1
 -1.054443682290e-03    7  3  6  4
  1.545484730161e-02    7  3  7  3
 -2.371896448462e-02    7  4  1  1
 -2.066391530048e-02    7  4  2  2
 -2.066391530045e-02    7  4  3  3
 -3.516060545464e-03    7  4  4  1
 -1.274143528239e-03    7  4  4  4
 -1.360718217096e-04    7  4  5  2
  2.980865132691e-04    7  4  5  3
 -2.300681421666e-02    7  4  5  5
  2.980865132398e-04    7  4  6  2
  1.360718217071e-04    7  4  6  3
 -2.300681421671e-02    7  4  6  6
  4.257480710540e-03    7  4  7  1
  4.465958467623e-03    7  4  7  4
 -3.046841737137e-03    7  5  2  1
  6.604227032449e-03    7  5  3  1
  3.578485820541e-04    7  5  4  2
 -7.727303306985e-04    7  5  4  3
 -5.945958450652e-03    7  5  5  1
 -1.232683986370e-03    7  5  5  4
 -1.047418073660e-06    7  5  6  1
 -1.382327323829e-06    7  5  6  4
  1.097558685284e-03    7  5  7  2
 -2.363500000349e-03    7  5  7  3
  9.871642211178e-03    7  5  7  5
  6.604227032473e-03    7  6  2  1
  3.046841737140e-03    7  6  3  1
 -7.727303307169e-04    7  6  4  2
 -3.578485820558e-04    7  6  4  3
  1.047418069651e-06    7  6  5  1
  1.382327334119e-06    7  6  5  4
 -5.945958450639e-03    7  6  6  1
 -1.232683986400e-03    7  6  6  4
 -2.363500000318e-03    7  6  7  2
 -1.097558685281e-03    7  6  7  3
  9.871642211201e-03    7  6  7  6
  5.313164370452e-01    7  7  1  1
  4.880171903736e-01    7  7  2  2
  4.880171903735e-01    7  7  3  3
  1.655697692406e-02    7  7  4  1
  2.023389232909e-01    7  7  4  4
  4.570679545486e-02    7  7  5  2
 -9.872339542575e-02    7  7  5  3
  4.469007055801e-01    7  7  5  5
 -9.872339542573e-02    7  7  6  2
 -4.570679545486e-02    7  7  6  3
  4.469007055802e-01    7  7  6  6
 -3.397448251131e-02    7  7  7  1
 -2.112724858652e-02    7  7  7  4
  4.990928329789e-01    7  7  7  7
 -1.816881017132e-01    8  1  1  1
 -1.725938574871e-01    8  1  2  2
 -1.725938574871e-01    8  1  3  3
 -5.850356700362e-03    8  1  4  1
  3.299290382281e-02    8  1  4  4
 -6.031059867222e-02    8  1  5  2
  1.302251347987e-01    8  1  5  3
 -9.132485251469e-02    8  1  5  5
  1.302251347987e-01    8  1  6  2
  6.031059867222e-02    8  1  6  3
 -9.132485251470e-02    8  1  6  6
  3.218076186027e-02    8  1  7  1
  1.156294216479e-03    8  1  7  4
 -1.164176974286e-01    8  1  7  7
  1.928108170350e-01    8  1  8  1
 -1.283010736653e-02    8  2  2  1
 -3.601833803212e-06    8  2  3  1
 -1.214232758077e-03    8  2  4  2
 -1.015586285058e-08    8  2  4  3
 -5.192073899412e-03    8  2  5  1
 -1.488200383354e-04    8  2  5  4
  1.121352912267e-02    8  2  6  1
  3.218487781389e-04    8  2  6  4
  2.888791975906e-03    8  2  7  2
 -2.412808119215e-06    8  2  7  3
  2.738357648047e-03    8  2  7  5
 -5.921311357715e-03    8  2  7  6
  1.573179463349e-02    8  2  8  2
  3.601833804346e-06    8  3  2  1
 -1.283010736653e-02    8  3  3  1
  1.015586241537e-08    8  3  4  2
 -1.214232758076e-03    8  3  4  3
  1.121352912267e-02    8  3  5  1
  3.218487781418e-04    8  3  5  4
  5.192073899412e-03    8  3  6  1
  1.488200383350e-04    8  3  6  4
  2.412808117342e-06    8  3  7  2
  2.888791975909e-03    8  3  7  3
 -5.921311357726e-03    8  3  7  5
 -2.738357648046e-03    8  3  7  6
  1.573179463350e-02    8  3  8  3
  1.386505840381e-03    8  4  1  1
  1.493500955243e-04    8  4  2  2
  1.493500955251e-04    8  4  3  3
  3.081420194903e-03    8  4  4  1
 -3.004961223791e-04    8  4  4  4
 -3.520721549001e-03    8  4  5  2
  7.597905220522e-03    8  4  5  3
  7.322568158475e-03    8  4  5  5
  7.597905220522e-03    8  4  6  2
  3.520721549000e-03    8  4  6  3
  7.322568158472e-03    8  4  6  6
  5.766902751000e-05    8  4  7  1
 -4.012561888542e-03    8  4  7  4
  5.662808682787e-03    8  4  7  7
  1.172295285744e-02    8  4  8  1
  5.848836029473e-03    8  4  8  4
 -7.918697075085e-03    8  5  2  1
  1.710356806880e-02    8  5  3  1
 -4.919850732666e-05    8  5  4  2
  1.072128675846e-04    8  5  4  3
 -7.154924391992e-03    8  5  5  1
 -1.906106593253e-03    8  5  5  4
 -5.425189133009e-06    8  5  6  1
  9.007562868456e-08    8  5  6  4
  8.736245516633e-04    8  5  7  2
 -1.894568915383e-03    8  5  7  3
  4.037606058336e-03    8  5  7  5
 -3.845340995577e-06    8  5  7  6
  3.698841476538e-03    8  5  8  2
 -7.998809002953e-03    8  5  8  3
  1.843134898714e-02    8  5  8  5
  1.710356806880e-02    8  6  2  1
  7.918697075085e-03    8  6  3  1
  1.072128675823e-04    8  6  4  2
  4.919850732649e-05    8  6  4  3
  5.425189134112e-06    8  6  5  1
 -9.007562751494e-08    8  6  5  4
 -7.154924391993e-03    8  6  6  1
 -1.906106593256e-03    8  6  6  4
 -1.894568915362e-03    8  6  7  2
 -8.736245516613e-04    8  6  7  3
  3.845340987587e-06    8  6  7  5
  4.037606058360e-03    8  6  7  6
 -7.998809002949e-03    8  6  8  2
 -3.698841476538e-03    8  6  8  3
  1.843134898714e-02    8  6  8  6
  1.107419925582e-01    8  7  1  1
  1.144395221192e-01    8  7  2  2
  1.144395221192e-01    8  7  3  3
  2.390157704244e-03    8  7  4  1
 -4.216093182920e-02    8  7  4  4
  4.759383029672e-02    8  7  5  2
 -1.027548309661e-01    8  7  5  3
  4.188941057272e-02    8  7  5  5
 -1.027548309661e-01    8  7  6  2
 -4.759383029672e-02    8  7  6  3
  4.188941057271e-02    8  7  6  6
 -1.133994254918e-02    8  7  7  1
  2.142805855910e-03    8  7  7  4
  7.362797467677e-02    8  7  7  7
 -1.547999455922e-01    8  7  8  1
 -1.159780125525e-02    8  7  8  4
  1.470691479922e-01    8  7  8  7
  5.961790337448e-01    8  8  1  1
  5.246574813427e-01    8  8  2  2
  5.246574813428e-01    8  8  3  3
  2.311484352121e-02    8  8  4  1
  2.427824485346e-01    8  8  4  4
  4.473626634178e-02    8  8  5  2
 -9.668651694282e-02    8  8  5  3
  5.190824339811e-01    8  8  5  5
 -9.668651694282e-02    8  8  6  2
 -4.473626634178e-02    8  8  6  3
  5.190824339811e-01    8  8  6  6
 -1.070832258298e-01    8  8  7  1
 -2.699893810828e-02    8  8  7  4
  5.092594075831e-01    8  8  7  7
 -1.201845779451e-01    8  8  8  1
  7.113194295502e-03    8  8  8  4
  5.123026785822e-02    8  8  8  7
  6.216356446810e-01    8  8  8  8
 -2.046829937783e-09    9  1  1  1
  3.475021658310e-06    9  1  2  2
  2.007186347967e-06    9  1  3  2
 -3.476817058420e-06    9  1  3  3
 -2.703581099885e-10    9  1  4  1
 -4.176218161646e-10    9  1  4  4
 -3.038417273779e-06    9  1  5  2
  3.207029833241e-05    9  1  5  3
  6.435693552823e-05    9  1  5  5
 -3.207223868768e-05    9  1  6  2
 -3.039315155108e-06    9  1  6  3
  2.276199584014e-05    9  1  6  5
 -6.435897419567e-05    9  1  6  6
  1.273502270991e-10    9  1  7  1
  2.055379613045e-10    9  1  7  4
  3.196301365311e-10    9  1  7  7
 -7.421433559925e-10    9  1  8  1
 -9.211240570788e-11    9  1  8  4
  9.256004514496e-10    9  1  8  7
 -1.528410603953e-09    9  1  8  8
  7.712634181491e-06    9  1  9  1
  1.083168531180e-04    9  2  2  1
  6.329748517370e-05    9  2  3  1
 -6.963564158666e-05    9  2  4  2
 -4.077546549674e-05    9  2  4  3
  7.576866185574e-06    9  2  5  1
 -1.509140513230e-05    9  2  5  4
  7.903062383660e-05    9  2  6  1
 -1.578798846264e-04    9  2  6  4
  1.518843008862e-04    9  2  7  2
  8.868010114642e-05    9  2  7  3
  6.458426832155e-06    9  2  7  5
  6.657814799565e-05    9  2  7  6
 -2.074337430328e-05    9  2  8  2
 -1.197792911433e-05    9  2  8  3
  9.960525051907e-06    9  2  8  5
  1.048402059420e-04    9  2  8  6
  1.693089749428e-05    9  2  9  2
  6.329748489045e-05    9  3  2  1
 -1.083166758677e-04    9  3  3  1
 -4.077546541706e-05    9  3  4  2
  6.963577516051e-05    9  3  4  3
 -7.903089239263e-05    9  3  5  1
  1.578797047783e-04    9  3  5  4
  7.576741776032e-06    9  3  6  1
 -1.509148823239e-05    9  3  6  4
  8.868010091358e-05    9  3  7  2
 -1.518837293455e-04    9  3  7  3
 -6.657851668668e-05    9  3  7  5
  6.458255763361e-06    9  3  7  6
 -1.197792893853e-05    9  3  8  2
  2.074256641686e-05    9  3  8  3
 -1.048397397665e-04    9  3  8  5
  9.960740822907e-06    9  3  8  6
  2.328101418824e-12    9  3  9  2
  1.693088945871e-05    9  3  9  3
 -1.451685141856e-10    9  4  1  1
 -2.279138156034e-04    9  4  2  2
 -1.331317860012e-04    9  4  3  2
  2.279141351915e-04    9  4  3  3
  1.009595030074e-10    9  4  4  1
 -7.314847297317e-10    9  4  4  4
 -2.339996253021e-05    9  4  5  2
  2.442806553011e-04    9  4  5  3
  4.269637120728e-04    9  4  5  5
 -2.442811741302e-04    9  4  6  2
 -2.340020296174e-05    9  4  6  3
  1.506590658754e-04    9  4  6  5
 -4.269639234169e-04    9  4  6  6
  1.627769079606e-10    9  4  7  1
 -1.137741014392e-10    9  4  7  4
 -1.871130638746e-11    9  4  7  7
 -3.639303909188e-10    9  4  8  1
  1.421592122690e-10    9  4  8  4
  3.635237360667e-10    9  4  8  7
 -3.077311622550e-10    9  4  8  8
  4.666960751669e-06    9  4  9  1
  2.798348259512e-04    9  4  9  4
  1.625770185887e-05    9  5  2  1
 -1.712210789322e-04    9  5  3  1
 -1.330126992539e-05    9  5  4  2
  1.391614769893e-04    9  5  4  3
 -8.997472487233e-05    9  5  5  1
  2.417854631442e-04    9  5  5  4
 -3.161011667582e-05    9  5  6  1
  8.525358770519e-05    9  5  6  4
  1.692940182116e-05    9  5  7  2
 -1.775371611086e-04    9  5  7  3
 -7.683146413859e-05    9  5  7  5
 -2.688971396733e-05    9  5  7  6
  4.669502536578e-06    9  5  8  2
 -4.908637588101e-05    9  5  8  3
 -1.598369731552e-04    9  5  8  5
 -5.643238779813e-05    9  5  8  6
 -1.045988396947e-05    9  5  9  2
  2.255725848862e-05    9  5  9  3
  4.227338727742e-05    9  5  9  5
  1.712203226082e-04    9  6  2  1
  1.625735194257e-05    9  6  3  1
 -1.391615346984e-04    9  6  4  2
 -1.330129650527e-05    9  6  4  3
 -3.161011709298e-05    9  6  5  1
  8.525358775091e-05    9  6  5  4
  8.997480811318e-05    9  6  6  1
 -2.417851544925e-04    9  6  6  4
  1.775363929956e-04    9  6  7  2
  1.692904588037e-05    9  6  7  3
 -2.688971430163e-05    9  6  7  5
  7.683137089697e-05    9  6  7  6
  4.908713021233e-05    9  6  8  2
  4.669851666497e-06    9  6  8  3
 -5.643238740424e-05    9  6  8  5
  1.598362588817e-04    9  6  8  6
  2.255723002253e-05    9  6  9  2
  1.045988126626e-05    9  6  9  3
  7.070579421917e-12    9  6  9  5
  4.227334711261e-05    9  6  9  6
 -1.401077576454e-09    9  7  1  1
  9.220643018410e-05    9  7  2  2
  5.381762294560e-05    9  7  3  2
 -9.220779458961e-05    9  7  3  3
 -1.371465661602e-10    9  7  4  1
 -1.314931954357e-09    9  7  4  4
  7.149737883112e-06    9  7  5  2
 -7.444768341631e-05    9  7  5  3
 -1.451582797149e-04    9  7  5  5
  7.444655618440e-05    9  7  6  2
  7.149214184110e-06    9  7  6  3
 -5.123072895817e-05    9  7  6  5
  1.451541999036e-04    9  7  6  6
  2.007628280272e-09    9  7  7  1
  1.957672453119e-10    9  7  7  4
 -3.972465360211e-10    9  7  7  7
 -4.964154525324e-10    9  7  8  1
 -9.462055239553e-11    9  7  8  4
  1.075359872361e-09    9  7  8  7
 -3.107212242263e-09    9  7  8  8
 -4.763011495405e-06    9  7  9  1
  7.063158145286e-06    9  7  9  4
  1.065654084435e-05    9  7  9  7
 -3.526663732571e-09    9  8  1  1
 -5.447772878308e-05    9  8  2  2
 -3.179347142160e-05    9  8  3  2
  5.447004060387e-05    9  8  3  3
 -1.332462800892e-10    9  8  4  1
  5.169524683587e-10    9  8  4  4
 -6.206330667412e-06    9  8  5  2
  6.496894097938e-05    9  8  5  3
  1.407216889038e-04    9  8  5  5
 -6.496421776160e-05    9  8  6  2
 -6.204143358466e-06    9  8  6  3
  4.972385566763e-05    9  8  6  5
 -1.407265233064e-04    9  8  6  6
  5.133354543118e-10    9  8  7  1
  8.861268328235e-11    9  8  7  4
 -2.313236869220e-09    9  8  7  7
  3.092129033279e-09    9  8  8  1
  1.106244022498e-10    9  8  8  4
 -2.736145058012e-09    9  8  8  7
 -2.568074399682e-09    9  8  8  8
  1.095216215513e-05    9  8  9  1
  2.273542328589e-05    9  8  9  4
 -8.487845329262e-06    9  8  9  7
  1.841941734169e-05    9  8  9  8
  7.416006573741e-02    9  9  1  1
  7.423124593383e-02    9  9  2  2
 -2.270150050288e-12    9  9  3  2
  7.423124594160e-02    9  9  3  3
  8.604674539854e-05    9  9  4  1
  7.524232967888e-02    9  9  4  4
 -2.472652316725e-04    9  9  5  2
  5.333209527496e-04    9  9  5  3
  7.490161784180e-02    9  9  5  5
  5.333209396675e-04    9  9  6  2
  2.472652304252e-04    9  9  6  3
  2.104387627010e-12    9  9  6  5
  7.490161782984e-02    9  9  6  6
 -6.492935730898e-04    9  9  7  1
 -1.312932254551e-04    9  9  7  4
  7.363062081306e-02    9  9  7  7
  4.496715535898e-04    9  9  8  1
  1.939790515023e-04    9  9  8  4
 -7.872927012436e-04    9  9  8  7
  7.472205481212e-02    9  9  8  8
 -2.559203226910e-11    9  9  9  1
  7.398871731847e-12    9  9  9  4
 -3.565407337514e-11    9  9  9  7
  7.025910785523e-02    9  9  9  9
 -3.531163702830e+00    1  1  0  0
 -3.465358601961e+00    2  2  0  0
 -3.465358601962e+00    3  3  0  0
 -9.574010479409e-02    4  1  0  0
 -1.448204590427e+00    4  4  0  0
 -3.056397438655e-01    5  2  0  0
  6.592680022912e-01    5  3  0  0
 -2.582217487509e+00    5  5  0  0
  6.592680022912e-01    6  2  0  0
  3.056397438655e-01    6  3  0  0
 -2.582217487509e+00    6  6  0  0
  2.294573719836e-01    7  1  0  0
  1.149673253095e-01    7  4  0  0
 -1.544552873036e+00    7  7  0  0
  7.719456888771e-01    8  1  0  0
 -2.032986954147e-02    8  4  0  0
  7.796113128044e-02    8  7  0  0
 -2.527002329389e+00    8  8  0  0
  7.441075400154e-09    9  1  0  0
 -2.150946173802e-10    9  4  0  0
 -1.414443365640e-08    9  7  0  0
  3.790899839938e-09    9  8  0  0
 -4.920856801869e-01    9  9  0  0
    -49.316909608112   0  0  0  0
