#INFO: **** input file is /projects/bamu3429/BENCHMARK/fresh_atoms/MRPT/vtz/monoxides/ScO/mrpt.py ****
import json
from pyscf import gto,scf,mcscf, fci, lo, ci, cc
from pyscf.scf import ROHF, UHF,ROKS
import numpy as np
import pandas as pd

# THIS IS WERE IT STARTS ====================================

df=json.load(open("../../../trail.json"))

spins={'ScO':1, 'TiO':2, 'VO':3, 'CrO':4, 'MnO':5, 'FeO':4, 'CuO':1}

nd={'Sc':(1,0), 'Ti':(2,0), 'V':(3,0), 'Cr':(5,0), 'Mn':(5,0), 'Fe':(5,1), 'Cu':(5,4)}

cas={'Sc':3, 'Ti':4, 'V':5, 'Cr':6, 'Mn':7, 'Fe':8, 'Cu':11}

re={'ScO':1.668, 'TiO':1.623, 'VO':1.591, 'CrO':1.621, 'MnO':1.648, 'FeO':1.616, 'CuO':1.725}

datacsv={}
for nm in ['basis','charge','method','molecule','pseudopotential',
           'totalenergy','totalenergy-stocherr','totalenergy-syserr']:
  datacsv[nm]=[]

basis='vtz'
element='Sc'

mol=gto.Mole()
mol.ecp={}
mol.basis={}
for el in [element,'O']:
  mol.ecp[el]=gto.basis.parse_ecp(df[el]['ecp'])
  mol.basis[el]=gto.basis.parse(df[el][basis])
mol.charge=0
mol.spin=spins[element+'O']
mol.build(atom="%s 0. 0. 0.; O 0. 0. %g"%(element,re[element+'O']),verbose=4)

m=ROHF(mol)
m.level_shift=1000.0
dm=m.from_chk("../../../../HF/monoxides/"+element+basis+"0.chk")
hf=m.kernel(dm)
m.analyze()

from pyscf.shciscf import shci
mc = shci.SHCISCF(m, 9, 4+cas[element])
#mc.fcisolver.conv_tol = 1e-14
mc.fcisolver.mpiprefix="mpirun -np 28"
mc.fcisolver.num_thrds=12
mc.verbose = 4
cas=mc.kernel()[0]
 
from pyscf.icmpspt import icmpspt
pt=icmpspt.icmpspt(mc,rdmM=500, PTM=1000,\
                          pttype="MRLCC",\
                          third_order=True,\
                          fully_ic=True,\
                          do_dm4=True)

datacsv['basis'].append(basis)
datacsv['charge'].append(0)
datacsv['method'].append('MRPT')
datacsv['molecule'].append(element)
datacsv['pseudopotential'].append('trail')
datacsv['totalenergy'].append(cas+pt)
datacsv['totalenergy-stocherr'].append(0.0)
datacsv['totalenergy-syserr'].append(0.0)
pd.DataFrame(datacsv).to_csv(element+".csv",index=False)

#INFO: ******************** input file end ********************


System: ('Linux', 'bnode0304.rc.int.colorado.edu', '3.10.0-514.41.1.el7.x86_64', '#1 SMP Wed Jan 17 10:26:16 EST 2018', 'x86_64', 'x86_64')  Threads 28
Python 2.7.11 (default, Mar 22 2016, 01:42:54) 
[GCC Intel(R) C++ gcc 4.8 mode]
numpy 1.11.1  scipy 0.17.1
Date: Thu Mar 29 15:44:58 2018
PySCF version 1.4
PySCF path  /projects/bamu3429/softwares/pyscf_uptodate/pyscf
GIT ORIG_HEAD e2292e6edec2b0e0024c21b81de03db1d7bd4121
GIT HEAD      ref: refs/heads/master
GIT master branch  f3591ef22170896a4cdc2aadaa6f5da388ffcadb

[INPUT] VERBOSE 4
[INPUT] num atoms = 2
[INPUT] num electrons = 17
[INPUT] charge = 0
[INPUT] spin (= nelec alpha-beta = 2S) = 1
[INPUT] symmetry False subgroup None
[INPUT]  1 Sc     0.000000000000   0.000000000000   0.000000000000 AA    0.000000000000   0.000000000000   0.000000000000 Bohr
[INPUT]  2 O      0.000000000000   0.000000000000   1.668000000000 AA    0.000000000000   0.000000000000   3.152063175775 Bohr
[INPUT] ---------------- BASIS SET ---------------- 
[INPUT] l, kappa, [nprim/nctr], expnt,             c_1 c_2 ...
[INPUT] Sc
[INPUT] 0    0    [12   /1   ]  36.40041505       0.005374
                                19.41172108       -0.032266
                                7.76559262        0.361279
                                4.72233684        -0.858519
                                3.30202494        0.196889
                                1.73290764        0.133972
                                0.86033787        0.640189
                                0.4883664         0.334618
                                0.23725388        0.123744
                                0.10565308        -0.017421
                                0.04670613        0.010856
                                0.020926          -0.001573
[INPUT] 0    0    [12   /1   ]  36.40041505       -0.001039
                                19.41172108       0.006911
                                7.76559262        -0.089603
                                4.72233684        0.22876
                                3.30202494        -0.05839
                                1.73290764        -0.038559
                                0.86033787        -0.215849
                                0.4883664         -0.20849
                                0.23725388        -0.146275
                                0.10565308        0.350802
                                0.04670613        0.655178
                                0.020926          0.218601
[INPUT] 0    0    [12   /1   ]  36.40041505       -0.00175
                                19.41172108       0.017204
                                7.76559262        -0.309191
                                4.72233684        0.849279
                                3.30202494        -0.048406
                                1.73290764        -0.879531
                                0.86033787        -0.861793
                                0.4883664         0.451521
                                0.23725388        0.818867
                                0.10565308        0.713573
                                0.04670613        -0.620518
                                0.020926          -0.444725
[INPUT] 0    0    [12   /1   ]  36.40041505       0.001273
                                19.41172108       -0.019493
                                7.76559262        0.457296
                                4.72233684        -1.487759
                                3.30202494        0.341481
                                1.73290764        2.055667
                                0.86033787        0.444271
                                0.4883664         -2.657874
                                0.23725388        0.084156
                                0.10565308        1.920058
                                0.04670613        -0.403119
                                0.020926          -0.733418
[INPUT] 0    0    [1    /1   ]  0.020926             1
[INPUT] 0    0    [1    /1   ]  0.00937558           1
[INPUT] 1    0    [12   /1   ]  41.12697558       0.001162
                                22.43738592       -0.006345
                                11.2588519        0.030743
                                6.08582478        -0.083979
                                3.77549759        -0.031739
                                2.17906519        0.232763
                                1.07491872        0.420436
                                0.55241218        0.351975
                                0.2815094         0.143464
                                0.12312886        0.016009
                                0.0538551         0.000238
                                0.02355558        0.000253
[INPUT] 1    0    [12   /1   ]  41.12697558       -0.000251
                                22.43738592       0.001425
                                11.2588519        -0.007434
                                6.08582478        0.022493
                                3.77549759        0.004514
                                2.17906519        -0.065531
                                1.07491872        -0.124901
                                0.55241218        -0.130795
                                0.2815094         0.004026
                                0.12312886        0.357311
                                0.0538551         0.542386
                                0.02355558        0.222946
[INPUT] 1    0    [12   /1   ]  41.12697558       0.00062
                                22.43738592       -0.004736
                                11.2588519        0.034157
                                6.08582478        -0.121614
                                3.77549759        -0.12056
                                2.17906519        0.882214
                                1.07491872        0.368083
                                0.55241218        -0.900566
                                0.2815094         -0.579301
                                0.12312886        0.599454
                                0.0538551         0.442546
                                0.02355558        0.0067
[INPUT] 1    0    [12   /1   ]  41.12697558       0.002262
                                22.43738592       -0.014038
                                11.2588519        0.095759
                                6.08582478        -0.503141
                                3.77549759        0.622223
                                2.17906519        1.362984
                                1.07491872        -1.598889
                                0.55241218        -0.818793
                                0.2815094         1.67365
                                0.12312886        -0.091296
                                0.0538551         -0.629433
                                0.02355558        -0.001578
[INPUT] 1    0    [1    /1   ]  0.02355558           1
[INPUT] 1    0    [1    /1   ]  0.01030293           1
[INPUT] 2    0    [10   /1   ]  23.41055103       -0.002062
                                9.57667856        0.014373
                                5.80916551        0.096933
                                2.24207749        0.204502
                                1.03019541        0.261896
                                0.49142269        0.31382
                                0.21727354        0.282419
                                0.10003285        0.15287
                                0.04583255        0.056392
                                0.02097146        0.002436
[INPUT] 2    0    [10   /1   ]  23.41055103       0.00358
                                9.57667856        -0.025515
                                5.80916551        -0.059701
                                2.24207749        -0.368686
                                1.03019541        -0.411377
                                0.49142269        0.111569
                                0.21727354        0.351629
                                0.10003285        0.348869
                                0.04583255        0.164529
                                0.02097146        0.017016
[INPUT] 2    0    [10   /1   ]  23.41055103       0.002987
                                9.57667856        -0.02282
                                5.80916551        -0.028398
                                2.24207749        -0.633662
                                1.03019541        0.000206
                                0.49142269        0.7719
                                0.21727354        0.176352
                                0.10003285        -0.462194
                                0.04583255        -0.352638
                                0.02097146        -0.047043
[INPUT] 2    0    [1    /1   ]  0.02097146           1
[INPUT] 2    0    [1    /1   ]  0.00959584           1
[INPUT] 3    0    [1    /1   ]  1.906048             1
[INPUT] 3    0    [1    /1   ]  0.547537             1
[INPUT] 3    0    [1    /1   ]  0.15728709           1
[INPUT] 4    0    [1    /1   ]  1.769691             1
[INPUT] 4    0    [1    /1   ]  0.50836667           1
[INPUT] O
[INPUT] 0    0    [10   /1   ]  57.663349         -0.002794
                                35.726816         0.023976
                                22.453757         -0.115974
                                14.732301         0.288033
                                9.739917          -0.274786
                                5.042008          -0.083789
                                2.157818          0.063778
                                1.002916          0.410182
                                0.421839          0.504044
                                0.173041          0.172152
[INPUT] 0    0    [1    /1   ]  1.849096             1
[INPUT] 0    0    [1    /1   ]  0.255434             1
[INPUT] 0    0    [1    /1   ]  0.141483             1
[INPUT] 1    0    [10   /1   ]  52.47406          -0.000522
                                32.138432         0.004857
                                19.458579         -0.027749
                                11.839344         0.074258
                                7.91003           0.014369
                                3.670858          0.153479
                                1.53966           0.283685
                                0.647119          0.358201
                                0.267853          0.29559
                                0.107198          0.104889
[INPUT] 1    0    [1    /1   ]  0.622175             1
[INPUT] 1    0    [1    /1   ]  0.193391             1
[INPUT] 1    0    [1    /1   ]  0.052779             1
[INPUT] 2    0    [1    /1   ]  2.324251             1
[INPUT] 2    0    [1    /1   ]  0.656935             1
[INPUT] 2    0    [1    /1   ]  0.2072               1
[INPUT] 3    0    [1    /1   ]  1.423472             1
[INPUT] 3    0    [1    /1   ]  0.48761              1
nuclear repulsion = 20.9386666191367
number of shells = 35
number of NR pGTOs = 480
number of NR cGTOs = 133
basis = {'Sc': [[0, [36.40041505, 0.005374], [19.41172108, -0.032266], [7.76559262, 0.361279], [4.72233684, -0.858519], [3.30202494, 0.196889], [1.73290764, 0.133972], [0.86033787, 0.640189], [0.4883664, 0.334618], [0.23725388, 0.123744], [0.10565308, -0.017421], [0.04670613, 0.010856], [0.020926, -0.001573]], [0, [36.40041505, -0.001039], [19.41172108, 0.006911], [7.76559262, -0.089603], [4.72233684, 0.22876], [3.30202494, -0.05839], [1.73290764, -0.038559], [0.86033787, -0.215849], [0.4883664, -0.20849], [0.23725388, -0.146275], [0.10565308, 0.350802], [0.04670613, 0.655178], [0.020926, 0.218601]], [0, [36.40041505, -0.00175], [19.41172108, 0.017204], [7.76559262, -0.309191], [4.72233684, 0.849279], [3.30202494, -0.048406], [1.73290764, -0.879531], [0.86033787, -0.861793], [0.4883664, 0.451521], [0.23725388, 0.818867], [0.10565308, 0.713573], [0.04670613, -0.620518], [0.020926, -0.444725]], [0, [36.40041505, 0.001273], [19.41172108, -0.019493], [7.76559262, 0.457296], [4.72233684, -1.487759], [3.30202494, 0.341481], [1.73290764, 2.055667], [0.86033787, 0.444271], [0.4883664, -2.657874], [0.23725388, 0.084156], [0.10565308, 1.920058], [0.04670613, -0.403119], [0.020926, -0.733418]], [0, [0.020926, 1.0]], [0, [0.00937558, 1.0]], [1, [41.12697558, 0.001162], [22.43738592, -0.006345], [11.2588519, 0.030743], [6.08582478, -0.083979], [3.77549759, -0.031739], [2.17906519, 0.232763], [1.07491872, 0.420436], [0.55241218, 0.351975], [0.2815094, 0.143464], [0.12312886, 0.016009], [0.0538551, 0.000238], [0.02355558, 0.000253]], [1, [41.12697558, -0.000251], [22.43738592, 0.001425], [11.2588519, -0.007434], [6.08582478, 0.022493], [3.77549759, 0.004514], [2.17906519, -0.065531], [1.07491872, -0.124901], [0.55241218, -0.130795], [0.2815094, 0.004026], [0.12312886, 0.357311], [0.0538551, 0.542386], [0.02355558, 0.222946]], [1, [41.12697558, 0.00062], [22.43738592, -0.004736], [11.2588519, 0.034157], [6.08582478, -0.121614], [3.77549759, -0.12056], [2.17906519, 0.882214], [1.07491872, 0.368083], [0.55241218, -0.900566], [0.2815094, -0.579301], [0.12312886, 0.599454], [0.0538551, 0.442546], [0.02355558, 0.0067]], [1, [41.12697558, 0.002262], [22.43738592, -0.014038], [11.2588519, 0.095759], [6.08582478, -0.503141], [3.77549759, 0.622223], [2.17906519, 1.362984], [1.07491872, -1.598889], [0.55241218, -0.818793], [0.2815094, 1.67365], [0.12312886, -0.091296], [0.0538551, -0.629433], [0.02355558, -0.001578]], [1, [0.02355558, 1.0]], [1, [0.01030293, 1.0]], [2, [23.41055103, -0.002062], [9.57667856, 0.014373], [5.80916551, 0.096933], [2.24207749, 0.204502], [1.03019541, 0.261896], [0.49142269, 0.31382], [0.21727354, 0.282419], [0.10003285, 0.15287], [0.04583255, 0.056392], [0.02097146, 0.002436]], [2, [23.41055103, 0.00358], [9.57667856, -0.025515], [5.80916551, -0.059701], [2.24207749, -0.368686], [1.03019541, -0.411377], [0.49142269, 0.111569], [0.21727354, 0.351629], [0.10003285, 0.348869], [0.04583255, 0.164529], [0.02097146, 0.017016]], [2, [23.41055103, 0.002987], [9.57667856, -0.02282], [5.80916551, -0.028398], [2.24207749, -0.633662], [1.03019541, 0.000206], [0.49142269, 0.7719], [0.21727354, 0.176352], [0.10003285, -0.462194], [0.04583255, -0.352638], [0.02097146, -0.047043]], [2, [0.02097146, 1.0]], [2, [0.00959584, 1.0]], [3, [1.906048, 1.0]], [3, [0.547537, 1.0]], [3, [0.15728709, 1.0]], [4, [1.769691, 1.0]], [4, [0.50836667, 1.0]]], 'O': [[0, [57.663349, -0.002794], [35.726816, 0.023976], [22.453757, -0.115974], [14.732301, 0.288033], [9.739917, -0.274786], [5.042008, -0.083789], [2.157818, 0.063778], [1.002916, 0.410182], [0.421839, 0.504044], [0.173041, 0.172152]], [0, [1.849096, 1.0]], [0, [0.255434, 1.0]], [0, [0.141483, 1.0]], [1, [52.47406, -0.000522], [32.138432, 0.004857], [19.458579, -0.027749], [11.839344, 0.074258], [7.91003, 0.014369], [3.670858, 0.153479], [1.53966, 0.283685], [0.647119, 0.358201], [0.267853, 0.29559], [0.107198, 0.104889]], [1, [0.622175, 1.0]], [1, [0.193391, 1.0]], [1, [0.052779, 1.0]], [2, [2.324251, 1.0]], [2, [0.656935, 1.0]], [2, [0.2072, 1.0]], [3, [1.423472, 1.0]], [3, [0.48761, 1.0]]]}
ecp = {'Sc': [10, [[-1, [[], [[8.68432435, 11.0]], [[12.96081047, 1293.12711495], [3.42726018, -59.34807006], [13.92649869, -6626.33658022], [14.1135521, 5365.4170824]], [[3.87834215, 95.52756785]]]], [0, [[], [], [[14.11432286, -1492.86349923], [4.42835597, 1499.37242], [7.46045566, 1088.20049735], [10.23533878, -1981.91696501], [4.52489587, -1710.45115474], [13.07885945, 2625.43810581]], []]], [1, [[], [], [[9.83997641, -2070.12504374], [7.25072068, 5801.02991534], [11.81974746, 1554.97375552], [14.07433272, -853.69420879], [7.08460322, -4878.01776292], [14.07166426, 462.12967346]], []]], [2, [[], [], [[11.29849449, -570.2795343], [5.72119848, -549.4382461], [6.53234086, 1672.92599442], [8.11431019, -2704.80905453], [9.9572828, 4666.19773963], [10.24029445, -2524.96335631]], []]]]], 'O': [2, [[-1, [[], [[10.27717748, 6.0]], [[15.99566749, 1232.50197768], [10.46901775, -696.47008301], [14.6384801, -2654.22657081], [12.57591181, 2101.67732548]], [[7.77739102, 61.66306486]]]], [0, [[], [], [[12.39426073, -656683.37638839], [12.38126171, 657858.57667068], [8.57671033, 511.50098405], [9.89256508, -2579.54665641], [28.05641604, -57.68129584], [17.24753607, 970.30940152]], []]], [1, [[], [], [[14.78918914, -363027.24258186], [14.82014018, 361852.52314043], [22.89622221, -1300.20069256], [8.51331893, -181.96869573], [11.48609758, 2194.87589959], [27.22017524, 451.19906206]], []]]]]}
CPU time:         3.61


******** <class 'pyscf.scf.rohf.ROHF'> flags ********
method = ROHF
initial guess = minao
damping factor = 0
level shift factor = 1000.0
DIIS = <class 'pyscf.scf.diis.CDIIS'>
DIIS start cycle = 1
DIIS space = 8
SCF tol = 1e-09
SCF gradient tol = None
max. SCF cycles = 50
direct_scf = True
direct_scf_tol = 1e-13
chkfile to save SCF result = /projects/bamu3429/BENCHMARK/fresh_atoms/MRPT/vtz/monoxides/ScO/tmpRcLvSD
max_memory 4000 MB (current use 112 MB)
num. doubly occ = 8  num. singly occ = 1
Set gradient conv threshold to 3.16228e-05
init E= -61.8343628417266
  HOMO = 499.880847749688  LUMO = 1000.01135900801
cycle= 1 E= -61.8343628417268  delta_E= -1.71e-13  |g|= 1.34e-05  |ddm|= 7.39e-08
  HOMO = -0.119152251059238  LUMO = 0.0113590079038737
Extra cycle  E= -61.8343628418964  delta_E= -1.7e-10  |g|= 4.7e-06  |ddm|= 6.08e-05
converged SCF energy = -61.8343628418964
**** MO energy ****
                Roothaan           | alpha              | beta
MO #1   energy= -2.6507234815473   | -2.655363273395    | -2.6460836888204   occ= 2
MO #2   energy= -1.66224655368303  | -1.6673150528272   | -1.65717804825491  occ= 2
MO #3   energy= -1.62708452877697  | -1.62940599231237  | -1.62476306524158  occ= 2
MO #4   energy= -1.62708452877697  | -1.62940599231237  | -1.62476306524158  occ= 2
MO #5   energy= -1.11747300175358  | -1.11850009329441  | -1.11644590958094  occ= 2
MO #6   energy= -0.42962442856278  | -0.431142279732133 | -0.428106556141023 occ= 2
MO #7   energy= -0.420672375922762 | -0.421391067279629 | -0.419953684565893 occ= 2
MO #8   energy= -0.420672375922762 | -0.42139106727963  | -0.419953684565895 occ= 2
MO #9   energy= -0.119152251059238 | -0.247799516554404 | 0.00949402702135192 occ= 1
MO #10  energy= 0.0113590079038737 | 0.00477381375885833 | 0.0179442020488904 occ= 0
MO #11  energy= 0.0113590079038752 | 0.00477381375885884 | 0.0179442020488905 occ= 0
MO #12  energy= 0.0156762776658028 | 0.0141646399870213 | 0.0171882216843074 occ= 0
MO #13  energy= 0.0225554990640644 | 0.0214642050433373 | 0.0236467617131078 occ= 0
MO #14  energy= 0.0281758394671181 | 0.0280526165468182 | 0.0282990623874187 occ= 0
MO #15  energy= 0.0281758394671195 | 0.028052616546819  | 0.0282990623874196 occ= 0
MO #16  energy= 0.0317604775558983 | 0.0313688794149051 | 0.0321520756968915 occ= 0
MO #17  energy= 0.0317604775558986 | 0.0313688794149059 | 0.0321520756968922 occ= 0
MO #18  energy= 0.0367923506890735 | 0.0366084583588685 | 0.0369762352262776 occ= 0
MO #19  energy= 0.0440842513680131 | 0.0326307884861578 | 0.0555377142498703 occ= 0
MO #20  energy= 0.0440842513680139 | 0.0326307884861578 | 0.0555377142498698 occ= 0
MO #21  energy= 0.0603275898032203 | 0.0504572366939711 | 0.0701979043827147 occ= 0
MO #22  energy= 0.074634403671783  | 0.0702418973718335 | 0.0790269099717353 occ= 0
MO #23  energy= 0.0746344036717908 | 0.0702418973718412 | 0.0790269099717426 occ= 0
MO #24  energy= 0.0930002875356402 | 0.09198461676513   | 0.0940159583061515 occ= 0
MO #25  energy= 0.0930002875356417 | 0.0919846167651317 | 0.0940159583061522 occ= 0
MO #26  energy= 0.104503798843447  | 0.100145887117267  | 0.108861980958411  occ= 0
MO #27  energy= 0.129826453657342  | 0.125967917798135  | 0.133685168139133  occ= 0
MO #28  energy= 0.137826228210866  | 0.132881561718914  | 0.142770894702818  occ= 0
MO #29  energy= 0.137826228210869  | 0.132881561718918  | 0.142770894702819  occ= 0
MO #30  energy= 0.15954231283621   | 0.149143015704566  | 0.169941609967853  occ= 0
MO #31  energy= 0.159542312836211  | 0.149143015704568  | 0.169941609967855  occ= 0
MO #32  energy= 0.160308163280332  | 0.151327867722896  | 0.169288741293407  occ= 0
MO #33  energy= 0.241918558241949  | 0.235185476938797  | 0.248651639545102  occ= 0
MO #34  energy= 0.24191855824195   | 0.235185476938796  | 0.248651639545104  occ= 0
MO #35  energy= 0.264293214121147  | 0.263014129544968  | 0.265572298697332  occ= 0
MO #36  energy= 0.264293214121163  | 0.263014129544976  | 0.26557229869735   occ= 0
MO #37  energy= 0.303724480040092  | 0.301693464367671  | 0.305755467129058  occ= 0
MO #38  energy= 0.416037281318088  | 0.413134929655293  | 0.418939574815987  occ= 0
MO #39  energy= 0.497408589219901  | 0.485342938584439  | 0.509474260337434  occ= 0
MO #40  energy= 0.520016857364352  | 0.512390858001663  | 0.527642856727045  occ= 0
MO #41  energy= 0.520016857364354  | 0.512390858001669  | 0.527642856727043  occ= 0
MO #42  energy= 0.542972071664899  | 0.532499515989954  | 0.553444627339847  occ= 0
MO #43  energy= 0.5429720716649    | 0.532499515989955  | 0.553444627339849  occ= 0
MO #44  energy= 0.54957832698991   | 0.542125431951769  | 0.557031222028048  occ= 0
MO #45  energy= 0.549578326989912  | 0.542125431951772  | 0.557031222028051  occ= 0
MO #46  energy= 0.557372886680912  | 0.552400280081503  | 0.562345493280322  occ= 0
MO #47  energy= 0.557372886680965  | 0.552400280081561  | 0.56234549328037   occ= 0
MO #48  energy= 0.598737827628708  | 0.589132954599531  | 0.60834277204719   occ= 0
MO #49  energy= 0.698859041787956  | 0.694292567829123  | 0.703425502643725  occ= 0
MO #50  energy= 0.796378601616162  | 0.791854777182415  | 0.800902426049911  occ= 0
MO #51  energy= 0.796378601616241  | 0.791854777182507  | 0.800902426049984  occ= 0
MO #52  energy= 0.864175733747751  | 0.862256453620923  | 0.866095013874582  occ= 0
MO #53  energy= 0.864175733747764  | 0.862256453620935  | 0.866095013874595  occ= 0
MO #54  energy= 0.870361298050173  | 0.869656365345046  | 0.871066230755306  occ= 0
MO #55  energy= 0.870361298050226  | 0.869656365345103  | 0.871066230755352  occ= 0
MO #56  energy= 0.905446738267767  | 0.904043146966103  | 0.906850329735349  occ= 0
MO #57  energy= 1.03609013855448   | 1.03362375643725   | 1.03855652067171   occ= 0
MO #58  energy= 1.03609013855453   | 1.03362375643731   | 1.03855652067176   occ= 0
MO #59  energy= 1.26394539039465   | 1.26212465851716   | 1.26576612404737   occ= 0
MO #60  energy= 1.45301971670014   | 1.44993430610496   | 1.45610513332891   occ= 0
MO #61  energy= 1.50940631838996   | 1.50508696207653   | 1.5137256747034    occ= 0
MO #62  energy= 1.50940631839003   | 1.5050869620766    | 1.51372567470347   occ= 0
MO #63  energy= 1.78772410350143   | 1.78640281788011   | 1.78904538912275   occ= 0
MO #64  energy= 1.78772410350145   | 1.78640281788013   | 1.78904538912277   occ= 0
MO #65  energy= 1.84097926137946   | 1.83919677846073   | 1.84276174429819   occ= 0
MO #66  energy= 1.84097926137946   | 1.83919677846073   | 1.84276174429818   occ= 0
MO #67  energy= 1.86476927403562   | 1.86213117738363   | 1.86740737068762   occ= 0
MO #68  energy= 1.86476927403562   | 1.86213117738363   | 1.86740737068762   occ= 0
MO #69  energy= 1.91508772115298   | 1.91145088012229   | 1.91872456219882   occ= 0
MO #70  energy= 2.01476625927606   | 2.01358624537623   | 2.01594627317588   occ= 0
MO #71  energy= 2.01476625927606   | 2.01358624537623   | 2.01594627317588   occ= 0
MO #72  energy= 2.02706781574678   | 2.02394621811608   | 2.0301894127121    occ= 0
MO #73  energy= 2.07582392700694   | 2.07333199018164   | 2.07831586383224   occ= 0
MO #74  energy= 2.07582392700699   | 2.07333199018169   | 2.07831586383229   occ= 0
MO #75  energy= 2.10664245225927   | 2.10343670549147   | 2.10984819902705   occ= 0
MO #76  energy= 2.10664245225927   | 2.10343670549148   | 2.10984819902706   occ= 0
MO #77  energy= 2.23498125237597   | 2.23256145875905   | 2.23740104599289   occ= 0
MO #78  energy= 2.23498125237601   | 2.23256145875909   | 2.23740104599293   occ= 0
MO #79  energy= 2.26082054703792   | 2.25942895633863   | 2.26221213773722   occ= 0
MO #80  energy= 2.26082054703796   | 2.25942895633867   | 2.26221213773724   occ= 0
MO #81  energy= 2.26470916461388   | 2.2609077331891    | 2.26851059603867   occ= 0
MO #82  energy= 2.2647091646139    | 2.26090773318911   | 2.26851059603869   occ= 0
MO #83  energy= 2.37628741150632   | 2.37500704085563   | 2.37756778200143   occ= 0
MO #84  energy= 2.3775395647773    | 2.37699830687855   | 2.37808082267605   occ= 0
MO #85  energy= 2.37753956477734   | 2.37699830687859   | 2.37808082267609   occ= 0
MO #86  energy= 2.44299995763677   | 2.44071919955725   | 2.4452807157163    occ= 0
MO #87  energy= 2.44299995763677   | 2.44071919955725   | 2.4452807157163    occ= 0
MO #88  energy= 2.50415586763446   | 2.50316579310661   | 2.50514594218628   occ= 0
MO #89  energy= 2.8002150194541    | 2.79891945298564   | 2.80151058592258   occ= 0
MO #90  energy= 2.8002150194541    | 2.79891945298563   | 2.80151058592258   occ= 0
MO #91  energy= 2.92142104720838   | 2.92008050458279   | 2.92276158983398   occ= 0
MO #92  energy= 2.92142104720841   | 2.92008050458281   | 2.922761589834     occ= 0
MO #93  energy= 2.93158145985424   | 2.92729179532026   | 2.93587112379965   occ= 0
MO #94  energy= 3.03568660700086   | 3.03372529701178   | 3.03764791582543   occ= 0
MO #95  energy= 3.27532707635148   | 3.27434598296857   | 3.27630816997835   occ= 0
MO #96  energy= 3.41004881155398   | 3.40946626248632   | 3.41063136062163   occ= 0
MO #97  energy= 3.41004881155399   | 3.40946626248632   | 3.41063136062163   occ= 0
MO #98  energy= 4.09813509719896   | 4.09773038195675   | 4.09853981244117   occ= 0
MO #99  energy= 4.09813509719897   | 4.09773038195674   | 4.09853981244117   occ= 0
MO #100 energy= 5.1954605570558    | 5.19493726027015   | 5.19598385388521   occ= 0
MO #101 energy= 5.38702030109498   | 5.38490162763475   | 5.38913897455518   occ= 0
MO #102 energy= 5.38702030109498   | 5.38490162763478   | 5.38913897455521   occ= 0
MO #103 energy= 5.47586081694206   | 5.47380863539423   | 5.47791299845235   occ= 0
MO #104 energy= 5.90257244601611   | 5.9018038247639    | 5.90334106726834   occ= 0
MO #105 energy= 5.90257244601612   | 5.9018038247639    | 5.90334106726833   occ= 0
MO #106 energy= 5.9661510302778    | 5.96481388524764   | 5.96748817530796   occ= 0
MO #107 energy= 5.96615103027781   | 5.96481388524766   | 5.96748817530797   occ= 0
MO #108 energy= 6.23247175368317   | 6.23085698812208   | 6.23408651924425   occ= 0
MO #109 energy= 6.23247175368317   | 6.23085698812208   | 6.23408651924425   occ= 0
MO #110 energy= 6.26865319433608   | 6.26727147807216   | 6.27003491077857   occ= 0
MO #111 energy= 6.53009522930632   | 6.53003611839023   | 6.53015434022241   occ= 0
MO #112 energy= 6.53009522930632   | 6.53003611839023   | 6.53015434022241   occ= 0
MO #113 energy= 6.6169874810325    | 6.61687687056806   | 6.61709809149694   occ= 0
MO #114 energy= 6.61698748103251   | 6.61687687056807   | 6.61709809149695   occ= 0
MO #115 energy= 6.7855934717062    | 6.78532539305829   | 6.78586155035411   occ= 0
MO #116 energy= 6.7855934717062    | 6.78532539305829   | 6.78586155035411   occ= 0
MO #117 energy= 7.14364378604331   | 7.14353457241819   | 7.1437529996684    occ= 0
MO #118 energy= 7.14364378604335   | 7.14353457241823   | 7.14375299966845   occ= 0
MO #119 energy= 7.22770933577249   | 7.2259560811063    | 7.22946259040924   occ= 0
MO #120 energy= 7.44702639909084   | 7.446603218138     | 7.44744958004434   occ= 0
MO #121 energy= 7.49683753838527   | 7.496592679692     | 7.49708239707853   occ= 0
MO #122 energy= 7.49683753838527   | 7.496592679692     | 7.49708239707853   occ= 0
MO #123 energy= 7.90334222890604   | 7.90296159130736   | 7.90372286650473   occ= 0
MO #124 energy= 7.90334222890605   | 7.90296159130738   | 7.90372286650476   occ= 0
MO #125 energy= 7.9343633311954    | 7.93383757550551   | 7.93488908688527   occ= 0
MO #126 energy= 7.9343633311954    | 7.93383757550551   | 7.93488908688527   occ= 0
MO #127 energy= 8.0366979147286    | 8.03582789650777   | 8.03756793294945   occ= 0
MO #128 energy= 8.0366979147286    | 8.03582789650776   | 8.03756793294945   occ= 0
MO #129 energy= 8.07823584250134   | 8.07709107133064   | 8.07938061367202   occ= 0
MO #130 energy= 8.07823584250135   | 8.07709107133064   | 8.07938061367202   occ= 0
MO #131 energy= 8.28042871710959   | 8.27939299108903   | 8.28146444324708   occ= 0
MO #132 energy= 8.68988789764656   | 8.68785796475618   | 8.69191783081589   occ= 0
MO #133 energy= 13.5599687257501   | 13.5598169835973   | 13.560120467902    occ= 0
 ** Mulliken pop on meta-lowdin orthogonal AOs  **
 ** Mulliken pop  **
pop of  0Sc 3s        1.99925
pop of  0Sc 4s        0.88860
pop of  0Sc 5s        0.00439
pop of  0Sc 6s        0.00164
pop of  0Sc 7s        0.00140
pop of  0Sc 8s        0.00085
pop of  0Sc 3px       1.99903
pop of  0Sc 3py       1.99903
pop of  0Sc 3pz       1.99511
pop of  0Sc 4px       0.00935
pop of  0Sc 4py       0.00935
pop of  0Sc 4pz       0.07590
pop of  0Sc 5px       0.00020
pop of  0Sc 5py       0.00020
pop of  0Sc 5pz       0.00789
pop of  0Sc 6px       0.00005
pop of  0Sc 6py       0.00005
pop of  0Sc 6pz       0.00179
pop of  0Sc 7px       0.00058
pop of  0Sc 7py       0.00058
pop of  0Sc 7pz       0.02176
pop of  0Sc 8px       0.00007
pop of  0Sc 8py       0.00007
pop of  0Sc 8pz       0.00267
pop of  0Sc 3dxy      0.00000
pop of  0Sc 3dyz      0.30702
pop of  0Sc 3dz^2     0.47566
pop of  0Sc 3dxz      0.30702
pop of  0Sc 3dx2-y2    0.00000
pop of  0Sc 4dxy      0.00000
pop of  0Sc 4dyz      0.00015
pop of  0Sc 4dz^2     0.01116
pop of  0Sc 4dxz      0.00015
pop of  0Sc 4dx2-y2    0.00000
pop of  0Sc 5dxy      0.00000
pop of  0Sc 5dyz      0.00022
pop of  0Sc 5dz^2     0.00253
pop of  0Sc 5dxz      0.00022
pop of  0Sc 5dx2-y2    0.00000
pop of  0Sc 6dxy      0.00000
pop of  0Sc 6dyz      0.00004
pop of  0Sc 6dz^2     0.00118
pop of  0Sc 6dxz      0.00004
pop of  0Sc 6dx2-y2    0.00000
pop of  0Sc 7dxy      0.00000
pop of  0Sc 7dyz      0.00000
pop of  0Sc 7dz^2     0.00004
pop of  0Sc 7dxz      0.00000
pop of  0Sc 7dx2-y2    0.00000
pop of  0Sc 4fy^3     0.00000
pop of  0Sc 4fxyz     0.00000
pop of  0Sc 4fyz^2    0.00018
pop of  0Sc 4fz^3     0.00032
pop of  0Sc 4fxz^2    0.00018
pop of  0Sc 4fzx^2    0.00000
pop of  0Sc 4fx^3     0.00000
pop of  0Sc 5fy^3     0.00000
pop of  0Sc 5fxyz     0.00000
pop of  0Sc 5fyz^2    0.00149
pop of  0Sc 5fz^3     0.00228
pop of  0Sc 5fxz^2    0.00149
pop of  0Sc 5fzx^2    0.00000
pop of  0Sc 5fx^3     0.00000
pop of  0Sc 6fy^3     0.00000
pop of  0Sc 6fxyz     0.00000
pop of  0Sc 6fyz^2    0.00091
pop of  0Sc 6fz^3     0.00522
pop of  0Sc 6fxz^2    0.00091
pop of  0Sc 6fzx^2    0.00000
pop of  0Sc 6fx^3     0.00000
pop of  0Sc 5g-4      0.00000
pop of  0Sc 5g-3      0.00000
pop of  0Sc 5g-2      0.00000
pop of  0Sc 5g-1      0.00001
pop of  0Sc 5g 0      0.00001
pop of  0Sc 5g 1      0.00001
pop of  0Sc 5g 2      0.00000
pop of  0Sc 5g 3      0.00000
pop of  0Sc 5g 4      0.00000
pop of  0Sc 6g-4      0.00000
pop of  0Sc 6g-3      0.00000
pop of  0Sc 6g-2      0.00000
pop of  0Sc 6g-1      0.00006
pop of  0Sc 6g 0      0.00101
pop of  0Sc 6g 1      0.00006
pop of  0Sc 6g 2      0.00000
pop of  0Sc 6g 3      0.00000
pop of  0Sc 6g 4      0.00000
pop of  1O 2s        1.84630
pop of  1O 3s        0.00208
pop of  1O 4s        0.00417
pop of  1O 5s        0.01585
pop of  1O 2px       1.66708
pop of  1O 2py       1.66708
pop of  1O 2pz       1.61671
pop of  1O 3px       0.00001
pop of  1O 3py       0.00001
pop of  1O 3pz       0.00050
pop of  1O 4px       0.00473
pop of  1O 4py       0.00473
pop of  1O 4pz       0.00159
pop of  1O 5px       0.00288
pop of  1O 5py       0.00288
pop of  1O 5pz       0.00537
pop of  1O 3dxy      0.00000
pop of  1O 3dyz      0.00030
pop of  1O 3dz^2     0.00039
pop of  1O 3dxz      0.00030
pop of  1O 3dx2-y2    0.00000
pop of  1O 4dxy      0.00000
pop of  1O 4dyz      0.00230
pop of  1O 4dz^2     0.00252
pop of  1O 4dxz      0.00230
pop of  1O 4dx2-y2    0.00000
pop of  1O 5dxy      0.00000
pop of  1O 5dyz      0.00319
pop of  1O 5dz^2     0.00339
pop of  1O 5dxz      0.00319
pop of  1O 5dx2-y2    0.00000
pop of  1O 4fy^3     0.00000
pop of  1O 4fxyz     0.00000
pop of  1O 4fyz^2    0.00005
pop of  1O 4fz^3     0.00010
pop of  1O 4fxz^2    0.00005
pop of  1O 4fzx^2    0.00000
pop of  1O 4fx^3     0.00000
pop of  1O 5fy^3     0.00000
pop of  1O 5fxyz     0.00000
pop of  1O 5fyz^2    0.00009
pop of  1O 5fz^3     0.00040
pop of  1O 5fxz^2    0.00009
pop of  1O 5fzx^2    0.00000
pop of  1O 5fx^3     0.00000
 ** Mulliken atomic charges  **
charge of  0Sc =      0.86065
charge of  1O =     -0.86065

******** <class 'pyscf.mcscf.mc1step.CASSCF'> flags ********
CAS (4e+3e, 9o), ncore = 5, nvir = 119
max_cycle_macro = 50
max_cycle_micro = 4
conv_tol = 1e-07
conv_tol_grad = None
orbital rotation max_stepsize = 0.02
augmented hessian ah_max_cycle = 30
augmented hessian ah_conv_tol = 1e-12
augmented hessian ah_linear dependence = 1e-14
augmented hessian ah_level shift = 0
augmented hessian ah_start_tol = 2.5
augmented hessian ah_start_cycle = 3
augmented hessian ah_grad_trust_region = 3
kf_trust_region = 3
kf_interval = 4
ci_response_space = 4
ci_grad_trust_region = 3
with_dep4 0
natorb = False
canonicalization = True
chkfile = ./scratch/110459/tmpoQ7r2l
max_memory 4000 MB (current use 534 MB)
internal_rotation = False

******** SHCI flags ********
executable             = /home/bamu3429/softwares/dice/Dice
mpiprefix              = mpirun -np 28
scratchDirectory       = ./scratch/110459
integralFile           = ./FCIDUMP
configFile             = ./input.dat
outputFile             = ./output.dat
maxIter                = 6
sweep_iter             = []
sweep_epsilon          = []
nPTiter                = 0
Stochastic             = True
fullrestart            = False
restart                = False
num_thrds              = 12
memory                 = None

CASCI E = -61.834366965219  S^2 = 0.7500000
Set conv_tol_grad to 0.000316228
macro iter 1 (7 JK  2 micro), CASSCF E = -61.8343815418942  dE = -1.4576675e-05  S^2 = 0.7500000
               |grad[o]|=4.94e-05  |grad[c]|= None  |ddm|=0.00557
macro iter 2 (7 JK  2 micro), CASSCF E = -61.8344966754549  dE = -0.00011513356  S^2 = 0.7500000
               |grad[o]|=0.000152  |grad[c]|= None  |ddm|=0.000512
macro iter 3 (7 JK  2 micro), CASSCF E = -61.8350874180171  dE = -0.00059074256  S^2 = 0.7500000
               |grad[o]|=0.00155  |grad[c]|= None  |ddm|=0.00695
macro iter 4 (21 JK  4 micro), CASSCF E = -61.850822229398  dE = -0.015734811  S^2 = 0.7500000
               |grad[o]|=0.00635  |grad[c]|= None  |ddm|=0.0347
macro iter 5 (21 JK  4 micro), CASSCF E = -61.8614934642841  dE = -0.010671235  S^2 = 0.7500000
               |grad[o]|=0.0354  |grad[c]|= None  |ddm|=0.0362
macro iter 6 (21 JK  4 micro), CASSCF E = -61.9134709380915  dE = -0.051977474  S^2 = 0.7500000
               |grad[o]|=0.0515  |grad[c]|= None  |ddm|=0.0365
macro iter 7 (21 JK  4 micro), CASSCF E = -61.9593196090783  dE = -0.045848671  S^2 = 0.7500000
               |grad[o]|=0.0763  |grad[c]|= None  |ddm|=0.0289
macro iter 8 (21 JK  4 micro), CASSCF E = -61.9673467946632  dE = -0.0080271856  S^2 = 0.7500000
               |grad[o]|=0.0331  |grad[c]|= None  |ddm|=0.0183
macro iter 9 (21 JK  4 micro), CASSCF E = -61.9696689931913  dE = -0.0023221985  S^2 = 0.7500000
               |grad[o]|=0.00878  |grad[c]|= None  |ddm|=0.00469
macro iter 10 (19 JK  4 micro), CASSCF E = -61.9701113614059  dE = -0.00044236821  S^2 = 0.7500000
               |grad[o]|=0.0049  |grad[c]|= None  |ddm|=0.0146
macro iter 11 (16 JK  4 micro), CASSCF E = -61.9701171531716  dE = -5.7917657e-06  S^2 = 0.7500000
               |grad[o]|=0.00344  |grad[c]|= None  |ddm|=0.00399
macro iter 12 (18 JK  4 micro), CASSCF E = -61.9701178750966  dE = -7.21925e-07  S^2 = 0.7500000
               |grad[o]|=0.000556  |grad[c]|= None  |ddm|=0.000825
macro iter 13 (15 JK  3 micro), CASSCF E = -61.9701288722266  dE = -1.099713e-05  S^2 = 0.7500000
               |grad[o]|=0.000471  |grad[c]|= None  |ddm|=0.00039
macro iter 14 (4 JK  1 micro), CASSCF E = -61.9701281429297  dE = 7.2929687e-07  S^2 = 0.7500000
               |grad[o]|=7.41e-05  |grad[c]|= None  |ddm|=3.41e-05
macro iter 15 (3 JK  1 micro), CASSCF E = -61.9701281532209  dE = -1.029116e-08  S^2 = 0.7500000
               |grad[o]|=4.96e-05  |grad[c]|= None  |ddm|=2.65e-05
1-step CASSCF converged in 15 macro (222 JK 47 micro) steps
CASSCF canonicalization
CASSCF energy = -61.9701281532209


--------------------------------------------------
                 ICMPSPT CALCULATION              
--------------------------------------------------

Perturbation type: MRLCC
With fully internally contracted scheme
With third order correction

Preparing necessary RDMs
......production of RDMs took      31.18 sec
Reading binary 4RDM from DICE
......reading the RDM took         28.28 sec

(GOOD) Trace 4RDM:    840.0 =    7*    6*    5*    4
(GOOD) Trace 3RDM:    210.0 =    7*    6*    5
(GOOD) Trace 2RDM:     42.0 =    7*    6
(GOOD) Trace 1RDM:      7.0 =    7

Producing the integrals
......production of INT took     156.32 sec

Energy_core =  -70.2555762272
Energy      =  -61.9701281532

WARNING: Have to use natural orbitals from CAASCF
         offdiagonal elements: 0.523655383115

Basic ingredients written to int/
......savings of INGREDIENTS took      39.46 sec

Second-order:
perturber CCVV --        -0.203169084
perturber CCAV --        -0.063302040
perturber ACVV --        -0.095972803
perturber CCAA --        -0.017852113
perturber AAVV --        -0.084352767
perturber CAAV --        -0.085049438
terminate called after throwing an instance of 'std::runtime_error'
  what():  No convergence!
/bin/sh: line 1: 156190 Aborted                 /projects/bamu3429/softwares/icpt/icpt MRLCC_AAAV.inp > MRLCC_AAAV.out
Traceback (most recent call last):
  File "mrpt.py", line 56, in <module>
    do_dm4=True)
  File "/projects/bamu3429/softwares/pyscf_uptodate/pyscf/icmpspt/icmpspt.py", line 1375, in icmpspt
    cumulantE4=cumulantE4, df=df, no_handcoded_E3=no_handcoded_E3)
  File "/projects/bamu3429/softwares/pyscf_uptodate/pyscf/icmpspt/icmpspt.py", line 689, in executeMRLCC
    output = check_call("%s  %s  %s > %s"%(mpiprefix, executable, infile, outfile), shell=True)
  File "/curc/sw/python/2.7.11/lib/python2.7/subprocess.py", line 540, in check_call
    raise CalledProcessError(retcode, cmd)
subprocess.CalledProcessError: Command '  /projects/bamu3429/softwares/icpt/icpt  MRLCC_AAAV.inp > MRLCC_AAAV.out' returned non-zero exit status 134
