 &FCI NORB=6 ,NELEC=11 ,MS2=1,
  ORBSYM=1,1,1,1,1,1,
  ISYM=1,
 &END
  1.004413869459e+00    1  1  1  1
  4.231528317930e-02    2  1  2  1
  9.197833031004e-01    2  2  1  1
  1.004413869459e+00    2  2  2  2
 -1.783121618802e-03    3  1  2  1
  4.953270199572e-03    3  1  2  2
  2.605169701851e-02    3  1  3  1
  3.566243237603e-03    3  2  1  1
 -2.476635099782e-03    3  2  2  1
  3.290480307440e-03    3  2  3  1
  3.991148628186e-02    3  2  3  2
  9.523104754220e-01    3  3  1  1
 -6.580960614882e-03    3  3  2  1
  9.245908968953e-01    3  3  2  2
  1.004413869459e+00    3  3  3  3
 -2.420764033932e-03    4  1  2  1
  5.281221626477e-04    4  1  2  2
 -2.871364350008e-03    4  1  3  1
  1.374364196011e-03    4  1  3  2
 -1.326253243250e-02    4  1  3  3
  3.803180860044e-02    4  1  4  1
  4.841528067861e-03    4  2  1  1
 -2.640610813239e-04    4  2  2  1
  4.615628488685e-03    4  2  3  1
 -1.285823331189e-03    4  2  3  2
  4.532361015619e-03    4  2  3  3
 -5.323205194932e-03    4  2  4  1
  2.788171815135e-02    4  2  4  2
  5.742728700016e-03    4  3  1  1
 -5.989992684698e-03    4  3  2  1
  2.571646662379e-03    4  3  2  2
  6.631266216249e-03    4  3  3  1
 -2.266180507809e-03    4  3  3  2
  1.128231690748e-03    4  3  4  1
  8.650996782734e-03    4  3  4  2
  3.747275113604e-02    4  3  4  3
  9.283502522581e-01    4  4  1  1
  1.064641038987e-02    4  4  2  1
  9.486504331563e-01    4  4  2  2
 -2.256463381489e-03    4  4  3  1
 -1.730199356547e-02    4  4  3  2
  9.294683671869e-01    4  4  3  3
  1.004413869459e+00    4  4  4  4
 -4.028026768257e-04    5  1  2  1
  8.889659532172e-03    5  1  2  2
  7.176619711525e-03    5  1  3  1
  5.121123039903e-03    5  1  3  2
 -7.591687878925e-03    5  1  3  3
  2.801434469865e-03    5  1  4  1
  5.632066210828e-03    5  1  4  2
  1.141246468582e-02    5  1  4  3
 -1.297971653240e-03    5  1  4  4
  3.471104078008e-02    5  1  5  1
  8.056053536496e-04    5  2  1  1
 -4.444829766083e-03    5  2  2  1
 -1.240536999168e-03    5  2  3  1
 -6.955857189239e-03    5  2  3  2
 -5.948692867024e-03    5  2  3  3
  9.490989764605e-03    5  2  4  1
 -2.899160704591e-04    5  2  4  2
  6.204086641778e-03    5  2  4  3
  5.143087513374e-03    5  2  4  4
  2.032724887492e-03    5  2  5  1
  3.100134196583e-02    5  2  5  2
 -1.435323942306e-02    5  3  1  1
 -3.880586040737e-03    5  3  2  1
  1.391171437848e-02    5  3  2  2
  3.795843939465e-03    5  3  3  1
  2.974346433512e-03    5  3  3  2
 -9.004447345277e-03    5  3  4  1
  3.081006269259e-04    5  3  4  2
 -2.511518399406e-03    5  3  4  3
  4.415250445698e-04    5  3  4  4
  1.348403409036e-03    5  3  5  1
 -6.867875163932e-03    5  3  5  2
  3.767389514192e-02    5  3  5  3
 -5.602868939730e-03    5  4  1  1
 -1.512305597544e-02    5  4  2  1
  5.798321409188e-04    5  4  2  2
 -2.408017340541e-03    5  4  3  1
 -6.512187268702e-03    5  4  3  2
  5.023036798811e-03    5  4  3  3
  6.489858266207e-04    5  4  4  1
 -2.571543756687e-03    5  4  4  2
 -2.207625222862e-04    5  4  4  3
 -6.367205134924e-03    5  4  5  1
  4.686944541741e-03    5  4  5  2
  4.157187681197e-03    5  4  5  3
  3.772355169051e-02    5  4  5  4
  9.349917878988e-01    5  5  1  1
 -4.065449774987e-03    5  5  2  1
  9.424111855273e-01    5  5  2  2
 -2.696806818065e-03    5  5  3  1
  1.373575032787e-02    5  5  3  2
  9.290660791752e-01    5  5  3  3
  1.273441026985e-02    5  5  4  1
 -9.373889083481e-03    5  5  4  2
 -8.314375362394e-03    5  5  4  3
  9.289667660780e-01    5  5  4  4
  1.004413869459e+00    5  5  5  5
 -9.952242441976e-05    6  1  1  1
 -1.385152958260e-03    6  1  2  1
  3.093241636476e-04    6  1  2  2
  2.002474307603e-04    6  1  3  1
  2.981784169506e-04    6  1  3  2
 -1.904466869601e-04    6  1  3  3
  6.782734993351e-04    6  1  4  1
 -1.788071530539e-05    6  1  4  2
  6.391669995785e-04    6  1  4  3
 -6.376419773436e-04    6  1  4  4
  4.247318208254e-04    6  1  5  1
  5.721870631343e-04    6  1  5  2
  8.842814824952e-05    6  1  5  3
  8.175511844185e-04    6  1  5  4
  6.182869250761e-04    6  1  5  5
  7.044732286386e-03    6  1  6  1
 -1.385152958260e-03    6  2  1  1
  3.093241636476e-04    6  2  2  1
  1.578123334227e-03    6  2  2  2
  2.981784169507e-04    6  2  3  1
 -1.489837520227e-04    6  2  3  2
 -1.112373039836e-03    6  2  3  3
 -1.788071530538e-05    6  2  4  1
  7.347080164974e-06    6  2  4  2
  1.064530352033e-04    6  2  4  3
  8.727259440024e-04    6  2  4  4
  5.721870631342e-04    6  2  5  1
 -2.645164623831e-05    6  2  5  2
  8.932027083572e-04    6  2  5  3
 -1.279362258268e-04    6  2  5  4
  4.667671986855e-05    6  2  5  5
  7.044732286386e-03    6  2  6  2
  2.002474307602e-04    6  3  1  1
  2.981784169506e-04    6  3  2  1
 -1.489837520228e-04    6  3  2  2
 -1.904466869601e-04    6  3  3  1
 -1.112373039836e-03    6  3  3  2
 -5.462577817123e-04    6  3  3  3
  6.391669995786e-04    6  3  4  1
  1.064530352033e-04    6  3  4  2
  5.356609418220e-04    6  3  4  3
  1.081941205315e-03    6  3  4  4
  8.842814824967e-05    6  3  5  1
  8.932027083573e-04    6  3  5  2
 -8.661007994360e-04    6  3  5  3
  5.403754780427e-05    6  3  5  4
 -5.869471023407e-04    6  3  5  5
  7.044732286386e-03    6  3  6  3
  6.782734993351e-04    6  4  1  1
 -1.788071530539e-05    6  4  2  1
  7.347080164905e-06    6  4  2  2
  6.391669995786e-04    6  4  3  1
  1.064530352033e-04    6  4  3  2
  5.356609418219e-04    6  4  3  3
 -6.376419773439e-04    6  4  4  1
  8.727259440023e-04    6  4  4  2
  1.081941205315e-03    6  4  4  3
 -2.213418915068e-04    6  4  4  4
  8.175511844187e-04    6  4  5  1
 -1.279362258269e-04    6  4  5  2
  5.403754780420e-05    6  4  5  3
 -4.704015885247e-04    6  4  5  4
 -9.999396298154e-04    6  4  5  5
  7.044732286386e-03    6  4  6  4
  4.247318208254e-04    6  5  1  1
  5.721870631343e-04    6  5  2  1
 -2.645164623832e-05    6  5  2  2
  8.842814824964e-05    6  5  3  1
  8.932027083573e-04    6  5  3  2
 -8.661007994360e-04    6  5  3  3
  8.175511844188e-04    6  5  4  1
 -1.279362258269e-04    6  5  4  2
  5.403754780423e-05    6  5  4  3
 -4.704015885247e-04    6  5  4  4
  6.182869250762e-04    6  5  5  1
  4.667671986823e-05    6  5  5  2
 -5.869471023407e-04    6  5  5  3
 -9.999396298153e-04    6  5  5  4
  9.382222133736e-04    6  5  5  5
  7.044732286386e-03    6  5  6  5
  3.624861792689e-01    6  6  1  1
  3.624861792689e-01    6  6  2  2
  3.624861792689e-01    6  6  3  3
  3.624861792689e-01    6  6  4  4
  3.624861792689e-01    6  6  5  5
  2.781400345135e-01    6  6  6  6
 -9.173001409919e+00    1  1  0  0
 -9.173001409919e+00    2  2  0  0
 -9.173001409919e+00    3  3  0  0
 -9.173001409919e+00    4  4  0  0
 -9.173001409919e+00    5  5  0  0
 -3.834003915999e+00    6  6  0  0
   -146.262847648724   0  0  0  0
