 &FCI NORB=6 ,NELEC=4 ,MS2=4,
  ORBSYM=1,1,1,1,1,1,
  ISYM=1,
 &END
  6.903649767594e-01    1  1  1  1
  1.570209390422e-12    2  1  1  1
  2.614896279635e-02    2  1  2  1
  6.305953014380e-01    2  2  1  1
  1.799708332835e-12    2  2  2  1
  6.750831554868e-01    2  2  2  2
 -1.377120713561e-11    3  1  1  1
 -2.292272403987e-11    3  1  2  1
 -6.435135334643e-10    3  1  2  2
  2.614896142465e-02    3  1  3  1
 -3.519684196884e-11    3  2  1  1
 -3.337487521155e-10    3  2  2  1
 -6.991836249367e-08    3  2  2  2
 -3.724346095324e-11    3  2  3  1
  2.601152142475e-02    3  2  3  2
  6.305952494587e-01    3  3  1  1
 -6.887538995429e-11    3  3  2  1
  6.240655678089e-01    3  3  2  2
 -1.225227015943e-11    3  3  3  1
  6.989707362660e-08    3  3  3  2
  6.750830380501e-01    3  3  3  3
  5.894003837923e-11    4  1  1  1
  2.147268363561e-10    4  1  2  1
  1.832952740669e-06    4  1  2  2
  2.454929344796e-11    4  1  3  1
 -1.318199994483e-02    4  1  3  2
 -1.832927852339e-06    4  1  3  3
  2.904495642155e-02    4  1  4  1
  5.702546248645e-10    4  2  1  1
 -1.000607684193e-06    4  2  2  1
 -1.605466963655e-10    4  2  2  2
  7.196078382279e-03    4  2  3  1
 -3.416172086318e-12    4  2  3  2
 -9.352165797568e-11    4  2  3  3
 -6.321693686507e-12    4  2  4  1
  1.846859745748e-02    4  2  4  2
  6.054627973091e-11    4  3  1  1
  7.196007680336e-03    4  3  2  1
 -1.006983029942e-11    4  3  2  2
  1.000593547946e-06    4  3  3  1
 -2.321344785276e-11    4  3  3  2
 -1.944171558372e-11    4  3  3  3
 -6.856851003115e-11    4  3  4  1
  5.250783326316e-12    4  3  4  2
  1.846850759391e-02    4  3  4  3
  6.192720937191e-01    4  4  1  1
  1.674037269593e-11    4  4  2  1
  6.373669788069e-01    4  4  2  2
  1.514757637180e-10    4  4  3  1
 -1.953957667048e-11    4  4  3  2
  6.373670769910e-01    4  4  3  3
  5.067491560716e-12    4  4  4  1
 -1.872286968973e-11    4  4  4  2
 -3.628128819329e-12    4  4  4  3
  6.721111936931e-01    4  4  4  4
 -2.960577612755e-08    5  1  1  1
  5.843285482045e-09    5  1  2  1
 -5.095594308912e-07    5  1  2  2
  6.840598813861e-10    5  1  3  1
  3.479600798118e-03    5  1  3  2
  4.581088482030e-07    5  1  3  3
 -3.951354090357e-03    5  1  4  1
  3.034740577936e-10    5  1  4  2
  2.652352676092e-09    5  1  4  3
 -2.517653262232e-08    5  1  4  4
  8.703069524916e-03    5  1  5  1
  1.391946865852e-07    5  2  1  1
 -4.562997596713e-07    5  2  2  1
  1.566828195262e-07    5  2  2  2
  3.272764226541e-03    5  2  3  1
  8.132665016550e-10    5  2  3  2
  1.427444422300e-07    5  2  3  3
 -2.656057568427e-10    5  2  4  1
  1.947670003587e-03    5  2  4  2
 -2.138418490576e-10    5  2  4  3
  1.489676330879e-07    5  2  4  4
 -9.454337452128e-10    5  2  5  1
  8.840366431234e-03    5  2  5  2
  1.612969474003e-08    5  3  1  1
  3.273882453917e-03    5  3  2  1
  1.651698583252e-08    5  3  2  2
  4.540036654846e-07    5  3  3  1
  6.995205348659e-09    5  3  3  2
  1.812852674015e-08    5  3  3  3
 -2.235999784566e-09    5  3  4  1
 -2.137226232771e-10    5  3  4  2
  1.948346977234e-03    5  3  4  3
  1.722236436120e-08    5  3  4  4
 -8.174354413257e-09    5  3  5  1
  1.977796912386e-09    5  3  5  2
  8.840961276518e-03    5  3  5  3
 -7.618709620293e-03    5  4  1  1
  6.191843211147e-10    5  4  2  1
 -2.034515333890e-03    5  4  2  2
  5.488565702432e-09    5  4  3  1
  9.178879340244e-10    5  4  3  2
 -2.035733223137e-03    5  4  3  3
 -1.686550716161e-09    5  4  4  1
  8.594913821052e-09    5  4  4  2
  9.811676491563e-10    5  4  4  3
 -6.297295431392e-05    5  4  4  4
 -1.257151597639e-09    5  4  5  1
  6.361119979589e-10    5  4  5  2
  4.232692997479e-11    5  4  5  3
  8.881777554934e-03    5  4  5  4
  3.105736776749e-01    5  5  1  1
 -1.751025096206e-09    5  5  2  1
  3.092156674419e-01    5  5  2  2
 -1.506970461587e-08    5  5  3  1
  3.664680151066e-09    5  5  3  2
  3.092162336987e-01    5  5  3  3
 -3.770752770776e-09    5  5  4  1
 -5.731993515772e-09    5  5  4  2
 -6.847878475320e-10    5  5  4  3
  3.086795550841e-01    5  5  4  4
  9.268164059265e-10    5  5  5  1
  4.823289193133e-09    5  5  5  2
  5.377938887944e-10    5  5  5  3
 -1.205961503709e-03    5  5  5  4
  2.435089303444e-01    5  5  5  5
  3.602156610476e-03    6  1  6  1
 -1.940407317340e-11    6  2  6  1
  3.824077699731e-03    6  2  6  2
 -4.812071311055e-11    6  3  6  1
 -2.844005095197e-06    6  3  6  2
  6.384802243307e-04    6  3  6  3
  3.283122829983e-06    6  4  6  1
  8.287853871836e-10    6  4  6  2
  3.761994603250e-11    6  4  6  3
  1.620802458740e-03    6  4  6  4
 -1.498136388856e-05    6  5  6  1
 -8.037200736429e-09    6  5  6  2
 -3.699363294028e-10    6  5  6  3
 -4.500086941150e-03    6  5  6  4
  3.329018614752e-02    6  5  6  5
  2.038118562413e-01    6  6  1  1
 -7.679959308528e-12    6  6  2  1
  2.035566854544e-01    6  6  2  2
 -1.718314172633e-10    6  6  3  1
 -5.034744215293e-06    6  6  3  2
  1.979962217372e-01    6  6  3  3
  5.970660272764e-06    6  6  4  1
  2.326471141059e-10    6  6  4  2
  1.873078238413e-11    6  6  4  3
  1.995748913746e-01    6  6  4  4
 -9.431391006499e-06    6  6  5  1
  2.363781095405e-09    6  6  5  2
  7.193057556104e-10    6  6  5  3
 -3.190831560168e-03    6  6  5  4
  1.824642675207e-01    6  6  5  5
  1.655111624094e-01    6  6  6  6
 -2.416246017968e+00    1  1  0  0
 -3.793430183135e-12    2  1  0  0
 -2.399063353921e+00    2  2  0  0
  3.628235716687e-11    3  1  0  0
  2.597576977533e-11    3  2  0  0
 -2.399063206817e+00    3  3  0  0
 -5.051039101158e-11    4  1  0  0
 -6.820025882428e-10    4  2  0  0
 -7.200759076177e-11    4  3  0  0
 -2.393101114697e+00    4  4  0  0
  7.204013649327e-08    5  1  0  0
 -4.151293383921e-07    5  2  0  0
 -4.802181319110e-08    5  3  0  0
  1.166178959100e-02    5  4  0  0
 -1.408381576558e+00    5  5  0  0
 -9.130188300240e-01    6  6  0  0
    -64.506279595256   0  0  0  0
