#INFO: **** input file is /projects/bamu3429/BENCHMARK/fresh_atoms/MRPT/vqz/atoms/V_1/mrpt.py ****
import json
from pyscf import gto,scf,mcscf, fci, lo, ci, cc
from pyscf.scf import ROHF, UHF,ROKS
import numpy as np
import pandas as pd

# THIS IS WERE IT STARTS ====================================

df=json.load(open("../../../trail.json"))

spins={'Sc':1, 'Ti':2, 'V':3, 'Cr':6, 'Mn':5, 'Fe':4, 'Cu':1}

nd={'Sc':(1,0), 'Ti':(2,0), 'V':(3,0), 'Cr':(5,0), 'Mn':(5,0), 'Fe':(5,1), 'Cu':(5,5)}

cas={'Sc':3, 'Ti':4, 'V':5, 'Cr':6, 'Mn':7, 'Fe':8, 'Cu':11}

datacsv={}
for nm in ['atom','charge','method','basis','pseudopotential','hf',
           'totalenergy','totalenergy-stocherr','totalenergy-syserr']:
  datacsv[nm]=[]

basis='vqz'
el='V'
charge=1

mol=gto.Mole()
mol.ecp={}
mol.basis={}
mol.ecp[el]=gto.basis.parse_ecp(df[el]['ecp'])
mol.basis[el]=gto.basis.parse(df[el][basis])
mol.charge=charge
if el == 'Cr' or el == 'Cu':
  mol.spin=spins[el]-charge
else:
  mol.spin=spins[el]+charge
mol.build(atom="%s 0. 0. 0."%el,verbose=4)

m=ROHF(mol)
m.level_shift=1000.0
dm=m.from_chk("../../../../HF/atoms/"+el+basis+str(charge)+".chk")
hf=m.kernel(dm)
m.analyze()

from pyscf.shciscf import shci
mc = shci.SHCISCF(m, 6, cas[el]-charge)
#mc.fcisolver.conv_tol = 1e-14
mc.fcisolver.mpiprefix="srun -n20"
mc.fcisolver.num_thrds=12
mc.verbose = 4
cas=mc.kernel()[0]
 
from pyscf.icmpspt import icmpspt
pt=icmpspt.icmpspt(mc,rdmM=500, PTM=1000,\
                          pttype="MRLCC",\
                          third_order=True,\
                          fully_ic=True,\
                          do_dm4=True)

datacsv['atom'].append(el)
datacsv['charge'].append(charge)
datacsv['method'].append('MRPT')
datacsv['basis'].append(basis)
datacsv['pseudopotential'].append('trail')
datacsv['hf'].append(hf)
datacsv['totalenergy'].append(cas+pt)
datacsv['totalenergy-stocherr'].append(0.0)
datacsv['totalenergy-syserr'].append(0.0)
pd.DataFrame(datacsv).to_csv(el+".csv",index=False)

#INFO: ******************** input file end ********************


System: ('Linux', 'bnode0302.rc.int.colorado.edu', '3.10.0-514.41.1.el7.x86_64', '#1 SMP Wed Jan 17 10:26:16 EST 2018', 'x86_64', 'x86_64')  Threads 28
Python 2.7.11 (default, Mar 22 2016, 01:42:54) 
[GCC Intel(R) C++ gcc 4.8 mode]
numpy 1.11.1  scipy 0.17.1
Date: Thu Apr 19 10:05:51 2018
PySCF version 1.4.6
PySCF path  /projects/bamu3429/softwares/pyscf_uptodate/pyscf
GIT ORIG_HEAD f3591ef22170896a4cdc2aadaa6f5da388ffcadb
GIT HEAD      ref: refs/heads/master
GIT master branch  1847583fb1d2472321833d3c71c8b7008e5fabf5

[INPUT] VERBOSE 4
[INPUT] num atoms = 1
[INPUT] num electrons = 12
[INPUT] charge = 1
[INPUT] spin (= nelec alpha-beta = 2S) = 4
[INPUT] symmetry False subgroup None
[INPUT]  1 V      0.000000000000   0.000000000000   0.000000000000 AA    0.000000000000   0.000000000000   0.000000000000 Bohr
[INPUT] ---------------- BASIS SET ---------------- 
[INPUT] l, kappa, [nprim/nctr], expnt,             c_1 c_2 ...
[INPUT] V
[INPUT] 0    0    [12   /1   ]  33.51168105       0.006845
                                15.38532624       -0.214557
                                9.96227367        1.392425
                                8.05943355        -1.485929
                                3.6960334         -0.026725
                                1.49220279        0.457681
                                0.84622253        0.506886
                                0.43855031        0.249453
                                0.2102388         0.007109
                                0.1022422         0.007055
                                0.04832462        -0.000443
                                0.02406855        0.001278
[INPUT] 0    0    [12   /1   ]  33.51168105       -0.001211
                                15.38532624       0.04697
                                9.96227367        -0.329808
                                8.05943355        0.363635
                                3.6960334         0.005985
                                1.49220279        -0.140857
                                0.84622253        -0.203846
                                0.43855031        -0.200776
                                0.2102388         0.022081
                                0.1022422         0.429765
                                0.04832462        0.534383
                                0.02406855        0.187984
[INPUT] 0    0    [12   /1   ]  33.51168105       -0.00739
                                15.38532624       0.238491
                                9.96227367        -1.724091
                                8.05943355        1.999647
                                3.6960334         -0.238256
                                1.49220279        -1.556963
                                0.84622253        0.309646
                                0.43855031        0.556155
                                0.2102388         0.87521
                                0.1022422         0.066563
                                0.04832462        -0.498018
                                0.02406855        -0.328938
[INPUT] 0    0    [12   /1   ]  33.51168105       -0.014812
                                15.38532624       0.388493
                                9.96227367        -2.78127
                                8.05943355        3.330758
                                3.6960334         -0.94462
                                1.49220279        -2.423512
                                0.84622253        2.390354
                                0.43855031        1.173321
                                0.2102388         -1.126324
                                0.1022422         -1.21378
                                0.04832462        0.578957
                                0.02406855        0.647397
[INPUT] 0    0    [12   /1   ]  33.51168105       0.02431
                                15.38532624       -0.654708
                                9.96227367        5.220233
                                8.05943355        -6.798776
                                3.6960334         4.217259
                                1.49220279        -0.410754
                                0.84622253        -4.499651
                                0.43855031        4.05621
                                0.2102388         0.422256
                                0.1022422         -1.849392
                                0.04832462        -0.198025
                                0.02406855        0.951472
[INPUT] 0    0    [1    /1   ]  0.02406855           1
[INPUT] 0    0    [1    /1   ]  0.01198757           1
[INPUT] 1    0    [12   /1   ]  49.83779697       0.000413
                                25.60370921       -0.003442
                                10.40982442       0.097153
                                7.71483683        -0.206888
                                4.49868206        0.083281
                                2.48212838        0.186621
                                1.4387019         0.395144
                                0.72090362        0.377883
                                0.3443302         0.134629
                                0.13162828        0.011074
                                0.05284968        -0.000426
                                0.02121951        0.000256
[INPUT] 1    0    [12   /1   ]  49.83779697       -2.9e-05
                                25.60370921       0.000502
                                10.40982442       -0.020934
                                7.71483683        0.047431
                                4.49868206        -0.020701
                                2.48212838        -0.057583
                                1.4387019         -0.106451
                                0.72090362        -0.140229
                                0.3443302         0.043257
                                0.13162828        0.438687
                                0.05284968        0.536785
                                0.02121951        0.12546
[INPUT] 1    0    [12   /1   ]  49.83779697       0.000125
                                25.60370921       -0.002517
                                10.40982442       0.129205
                                7.71483683        -0.331116
                                4.49868206        0.199683
                                2.48212838        0.736477
                                1.4387019         0.263863
                                0.72090362        -0.926674
                                0.3443302         -0.457633
                                0.13162828        0.732362
                                0.05284968        0.294964
                                0.02121951        -0.006728
[INPUT] 1    0    [12   /1   ]  49.83779697       -0.000421
                                25.60370921       -0.000896
                                10.40982442       0.223292
                                7.71483683        -0.706699
                                4.49868206        0.969782
                                2.48212838        1.23461
                                1.4387019         -1.707054
                                0.72090362        -0.818959
                                0.3443302         1.677915
                                0.13162828        -0.284846
                                0.05284968        -0.553275
                                0.02121951        0.038662
[INPUT] 1    0    [12   /1   ]  49.83779697       -0.005409
                                25.60370921       0.02436
                                10.40982442       0.004817
                                7.71483683        -0.691264
                                4.49868206        2.714011
                                2.48212838        -1.342486
                                1.4387019         -2.368929
                                0.72090362        3.305492
                                0.3443302         -1.334113
                                0.13162828        -0.670775
                                0.05284968        0.961376
                                0.02121951        -0.095792
[INPUT] 1    0    [1    /1   ]  0.02121951           1
[INPUT] 1    0    [1    /1   ]  0.00851977           1
[INPUT] 2    0    [10   /1   ]  34.27504048       0.000678
                                16.12418185       -0.017858
                                9.59474528        0.107867
                                3.8690861         0.173949
                                1.82728072        0.26883
                                0.85799457        0.321303
                                0.38035078        0.300128
                                0.15533087        0.170792
                                0.06318167        0.035148
                                0.03734397        0.003549
[INPUT] 2    0    [10   /1   ]  34.27504048       0.000582
                                16.12418185       0.010626
                                9.59474528        -0.094081
                                3.8690861         -0.229152
                                1.82728072        -0.398003
                                0.85799457        -0.07706
                                0.38035078        0.316419
                                0.15533087        0.47231
                                0.06318167        0.193995
                                0.03734397        0.015813
[INPUT] 2    0    [10   /1   ]  34.27504048       0.003942
                                16.12418185       -0.00929
                                9.59474528        -0.056573
                                3.8690861         -0.437279
                                1.82728072        -0.366316
                                0.85799457        0.692165
                                0.38035078        0.436052
                                0.15533087        -0.45661
                                0.06318167        -0.393393
                                0.03734397        -0.018597
[INPUT] 2    0    [10   /1   ]  34.27504048       -0.001109
                                16.12418185       0.03439
                                9.59474528        -0.270394
                                3.8690861         -0.936233
                                1.82728072        1.031092
                                0.85799457        0.469932
                                0.38035078        -0.990908
                                0.15533087        0.147863
                                0.06318167        0.422386
                                0.03734397        0.020135
[INPUT] 2    0    [1    /1   ]  0.03734397           1
[INPUT] 2    0    [1    /1   ]  0.02207241           1
[INPUT] 3    0    [1    /1   ]  3.23539              1
[INPUT] 3    0    [1    /1   ]  1.128879             1
[INPUT] 3    0    [1    /1   ]  0.393882             1
[INPUT] 3    0    [1    /1   ]  0.13743105           1
[INPUT] 4    0    [1    /1   ]  3.232259             1
[INPUT] 4    0    [1    /1   ]  1.154065             1
[INPUT] 4    0    [1    /1   ]  0.41205423           1
[INPUT] 5    0    [1    /1   ]  2.694878             1
[INPUT] 5    0    [1    /1   ]  0.96219527           1
nuclear repulsion = 0
number of shells = 29
number of NR pGTOs = 535
number of NR cGTOs = 135
basis = {'V': [[0, [33.51168105, 0.006845], [15.38532624, -0.214557], [9.96227367, 1.392425], [8.05943355, -1.485929], [3.6960334, -0.026725], [1.49220279, 0.457681], [0.84622253, 0.506886], [0.43855031, 0.249453], [0.2102388, 0.007109], [0.1022422, 0.007055], [0.04832462, -0.000443], [0.02406855, 0.001278]], [0, [33.51168105, -0.001211], [15.38532624, 0.04697], [9.96227367, -0.329808], [8.05943355, 0.363635], [3.6960334, 0.005985], [1.49220279, -0.140857], [0.84622253, -0.203846], [0.43855031, -0.200776], [0.2102388, 0.022081], [0.1022422, 0.429765], [0.04832462, 0.534383], [0.02406855, 0.187984]], [0, [33.51168105, -0.00739], [15.38532624, 0.238491], [9.96227367, -1.724091], [8.05943355, 1.999647], [3.6960334, -0.238256], [1.49220279, -1.556963], [0.84622253, 0.309646], [0.43855031, 0.556155], [0.2102388, 0.87521], [0.1022422, 0.066563], [0.04832462, -0.498018], [0.02406855, -0.328938]], [0, [33.51168105, -0.014812], [15.38532624, 0.388493], [9.96227367, -2.78127], [8.05943355, 3.330758], [3.6960334, -0.94462], [1.49220279, -2.423512], [0.84622253, 2.390354], [0.43855031, 1.173321], [0.2102388, -1.126324], [0.1022422, -1.21378], [0.04832462, 0.578957], [0.02406855, 0.647397]], [0, [33.51168105, 0.02431], [15.38532624, -0.654708], [9.96227367, 5.220233], [8.05943355, -6.798776], [3.6960334, 4.217259], [1.49220279, -0.410754], [0.84622253, -4.499651], [0.43855031, 4.05621], [0.2102388, 0.422256], [0.1022422, -1.849392], [0.04832462, -0.198025], [0.02406855, 0.951472]], [0, [0.02406855, 1.0]], [0, [0.01198757, 1.0]], [1, [49.83779697, 0.000413], [25.60370921, -0.003442], [10.40982442, 0.097153], [7.71483683, -0.206888], [4.49868206, 0.083281], [2.48212838, 0.186621], [1.4387019, 0.395144], [0.72090362, 0.377883], [0.3443302, 0.134629], [0.13162828, 0.011074], [0.05284968, -0.000426], [0.02121951, 0.000256]], [1, [49.83779697, -2.9e-05], [25.60370921, 0.000502], [10.40982442, -0.020934], [7.71483683, 0.047431], [4.49868206, -0.020701], [2.48212838, -0.057583], [1.4387019, -0.106451], [0.72090362, -0.140229], [0.3443302, 0.043257], [0.13162828, 0.438687], [0.05284968, 0.536785], [0.02121951, 0.12546]], [1, [49.83779697, 0.000125], [25.60370921, -0.002517], [10.40982442, 0.129205], [7.71483683, -0.331116], [4.49868206, 0.199683], [2.48212838, 0.736477], [1.4387019, 0.263863], [0.72090362, -0.926674], [0.3443302, -0.457633], [0.13162828, 0.732362], [0.05284968, 0.294964], [0.02121951, -0.006728]], [1, [49.83779697, -0.000421], [25.60370921, -0.000896], [10.40982442, 0.223292], [7.71483683, -0.706699], [4.49868206, 0.969782], [2.48212838, 1.23461], [1.4387019, -1.707054], [0.72090362, -0.818959], [0.3443302, 1.677915], [0.13162828, -0.284846], [0.05284968, -0.553275], [0.02121951, 0.038662]], [1, [49.83779697, -0.005409], [25.60370921, 0.02436], [10.40982442, 0.004817], [7.71483683, -0.691264], [4.49868206, 2.714011], [2.48212838, -1.342486], [1.4387019, -2.368929], [0.72090362, 3.305492], [0.3443302, -1.334113], [0.13162828, -0.670775], [0.05284968, 0.961376], [0.02121951, -0.095792]], [1, [0.02121951, 1.0]], [1, [0.00851977, 1.0]], [2, [34.27504048, 0.000678], [16.12418185, -0.017858], [9.59474528, 0.107867], [3.8690861, 0.173949], [1.82728072, 0.26883], [0.85799457, 0.321303], [0.38035078, 0.300128], [0.15533087, 0.170792], [0.06318167, 0.035148], [0.03734397, 0.003549]], [2, [34.27504048, 0.000582], [16.12418185, 0.010626], [9.59474528, -0.094081], [3.8690861, -0.229152], [1.82728072, -0.398003], [0.85799457, -0.07706], [0.38035078, 0.316419], [0.15533087, 0.47231], [0.06318167, 0.193995], [0.03734397, 0.015813]], [2, [34.27504048, 0.003942], [16.12418185, -0.00929], [9.59474528, -0.056573], [3.8690861, -0.437279], [1.82728072, -0.366316], [0.85799457, 0.692165], [0.38035078, 0.436052], [0.15533087, -0.45661], [0.06318167, -0.393393], [0.03734397, -0.018597]], [2, [34.27504048, -0.001109], [16.12418185, 0.03439], [9.59474528, -0.270394], [3.8690861, -0.936233], [1.82728072, 1.031092], [0.85799457, 0.469932], [0.38035078, -0.990908], [0.15533087, 0.147863], [0.06318167, 0.422386], [0.03734397, 0.020135]], [2, [0.03734397, 1.0]], [2, [0.02207241, 1.0]], [3, [3.23539, 1.0]], [3, [1.128879, 1.0]], [3, [0.393882, 1.0]], [3, [0.13743105, 1.0]], [4, [3.232259, 1.0]], [4, [1.154065, 1.0]], [4, [0.41205423, 1.0]], [5, [2.694878, 1.0]], [5, [0.96219527, 1.0]]]}
ecp = {'V': [10, [[-1, [[], [[8.85341849, 13.0]], [[14.12393489, 1867.96836466], [10.01469125, -417.2185296], [16.87739786, -6735.41034163], [17.42661229, 5248.9519915]], [[8.14766139, 115.09444037]]]], [0, [[], [], [[10.17161428, 8429.89768085], [6.62108601, -4738.0869454], [6.4407206, 3874.69004628], [11.26222343, -9817.80452096], [19.82459033, -286.16022228], [14.35299938, 2571.80634504]], []]], [1, [[], [], [[10.25117807, 40641.17869487], [10.49106006, -41559.00487832], [13.7869188, 3357.33248976], [16.29479305, -896.47755921], [7.79003518, -1904.45864373], [6.62830213, 382.3757783]], []]], [2, [[], [], [[8.601477, 4615.05527413], [10.66674565, -3671.60281242], [15.19026557, 4480.50015686], [8.06189603, -2591.12632756], [19.82232597, 2587.18683714], [18.22318105, -5431.92186158]], []]]]]}
CPU time:         3.53


******** <class 'pyscf.scf.rohf.ROHF'> flags ********
method = ROHF
initial guess = minao
damping factor = 0
level shift factor = 1000.0
DIIS = <class 'pyscf.scf.diis.CDIIS'>
DIIS start cycle = 1
DIIS space = 8
SCF tol = 1e-09
SCF gradient tol = None
max. SCF cycles = 50
direct_scf = True
direct_scf_tol = 1e-13
chkfile to save SCF result = /rc_scratch/bamu3429/tmpsfolaB
max_memory 4000 MB (current use 114 MB)
num. doubly occ = 4  num. singly occ = 4
Set gradient conv threshold to 3.16228e-05
init E= -70.4787825407936
  HOMO = 499.803971451678  LUMO = 999.807845967684
cycle= 1 E= -70.4787825407938  delta_E= -1.99e-13  |g|= 1.07e-05  |ddm|= 2.07e-08
  HOMO = -0.19602855899372  LUMO = -0.192154031800966
Extra cycle  E= -70.4787825207142  delta_E= 2.01e-08  |g|= 8.51e-05  |ddm|= 0.000686
converged SCF energy = -70.4787825207142
**** MO energy ****
                Roothaan           | alpha              | beta
MO #1   energy= -3.28856015644772  | -3.42360981933857  | -3.15351046358592  occ= 2
MO #2   energy= -2.12086377819802  | -2.27149217415256  | -1.97023538224348  occ= 2
MO #3   energy= -2.12086372998944  | -2.27149245927905  | -1.97023500069985  occ= 2
MO #4   energy= -2.11307540980531  | -2.31466238766092  | -1.91148843194968  occ= 2
MO #5   energy= -0.23126509971869  | -0.617120758709002 | 0.1545895917592    occ= 1
MO #6   energy= -0.204803587670212 | -0.577659217236684 | 0.168051317283294  occ= 1
MO #7   energy= -0.204803403233535 | -0.577658926334839 | 0.168051395650103  occ= 1
MO #8   energy= -0.19602855899372  | -0.565075803442846 | 0.173018795679839  occ= 1
MO #9   energy= -0.192154031800966 | -0.206007649892706 | -0.178301427876373 occ= 0
MO #10  energy= -0.112920989868627 | -0.117765343660658 | -0.108076636076604 occ= 0
MO #11  energy= -0.112920964442851 | -0.117765328060013 | -0.108076600825691 occ= 0
MO #12  energy= -0.109255482686384 | -0.11563389375476  | -0.102877071618009 occ= 0
MO #13  energy= -0.0702599765628804 | -0.0726837282315664 | -0.0678362404684659 occ= 0
MO #14  energy= -0.0586322826684039 | -0.0627909997295532 | -0.0544735656072579 occ= 0
MO #15  energy= -0.0501668947125621 | -0.0516248212851221 | -0.0487089681400062 occ= 0
MO #16  energy= -0.0501668874533831 | -0.0516248174876543 | -0.0487089574191159 occ= 0
MO #17  energy= -0.0490970444768192 | -0.0511138395909103 | -0.047080249362725 occ= 0
MO #18  energy= -0.0473713661569305 | -0.0485464678239596 | -0.0461962466788836 occ= 0
MO #19  energy= -0.0462039540532391 | -0.0474354557090709 | -0.0449723868833705 occ= 0
MO #20  energy= -0.046203946133775 | -0.0474354482915341 | -0.0449723785108262 occ= 0
MO #21  energy= -0.0457933006812115 | -0.0470520872419037 | -0.0445344150056967 occ= 0
MO #22  energy= -0.00831167218443944 | -0.0203336422743709 | 0.00371029790548832 occ= 0
MO #23  energy= 0.035857545897147  | 0.0279498535469786 | 0.043765238247309  occ= 0
MO #24  energy= 0.0358575777076489 | 0.0279498645829357 | 0.0437652908323571 occ= 0
MO #25  energy= 0.0387420062705119 | 0.0339199928870648 | 0.0435642483879201 occ= 0
MO #26  energy= 0.0405694124616639 | 0.0293032062043837 | 0.0518356187189413 occ= 0
MO #27  energy= 0.0417453613242797 | 0.036527586985819  | 0.0469632108903662 occ= 0
MO #28  energy= 0.0417453826799379 | 0.0365276052715828 | 0.0469632352160248 occ= 0
MO #29  energy= 0.0428312537777182 | 0.0374393669999152 | 0.0482231934705517 occ= 0
MO #30  energy= 0.068659733909989  | 0.0604392486775935 | 0.0768801883652529 occ= 0
MO #31  energy= 0.0912914652935843 | 0.0704476874609964 | 0.112135243126166  occ= 0
MO #32  energy= 0.315606486458757  | 0.310938519764203  | 0.320274453153312  occ= 0
MO #33  energy= 0.315606486554695  | 0.310938516084468  | 0.320274457024925  occ= 0
MO #34  energy= 0.31870865522974   | 0.310741855537939  | 0.326675454921538  occ= 0
MO #35  energy= 0.318847319965825  | 0.313180040794892  | 0.324514599136758  occ= 0
MO #36  energy= 0.320752192624304  | 0.313087869620991  | 0.328416515627617  occ= 0
MO #37  energy= 0.320752217012806  | 0.313087891405728  | 0.328416542619887  occ= 0
MO #38  energy= 0.321432810099795  | 0.313563844116944  | 0.329301776082644  occ= 0
MO #39  energy= 0.453407141554681  | 0.414416986558168  | 0.492397849771675  occ= 0
MO #40  energy= 0.453790949974946  | 0.438610888784189  | 0.468970936597986  occ= 0
MO #41  energy= 0.466686768705682  | 0.426724127125069  | 0.506649869868     occ= 0
MO #42  energy= 0.466686863784021  | 0.426724216708517  | 0.506649970214456  occ= 0
MO #43  energy= 0.471893859624965  | 0.431673493897134  | 0.51211491693121   occ= 0
MO #44  energy= 0.518927417604222  | 0.497896852804301  | 0.53995798240413   occ= 0
MO #45  energy= 0.893142201387229  | 0.863556024782582  | 0.922728377991872  occ= 0
MO #46  energy= 0.893142322421538  | 0.863556079758586  | 0.922728565084494  occ= 0
MO #47  energy= 0.910703886720769  | 0.871429131110275  | 0.949978642331268  occ= 0
MO #48  energy= 1.34707714452476   | 1.31657402466018   | 1.37758026438935   occ= 0
MO #49  energy= 1.34707714569468   | 1.31657399709671   | 1.37758029429264   occ= 0
MO #50  energy= 1.35038289401711   | 1.30357680037722   | 1.397188987657     occ= 0
MO #51  energy= 1.35449471899847   | 1.32172119752624   | 1.3872682404707    occ= 0
MO #52  energy= 1.3567712418334    | 1.31505686632776   | 1.39848561733905   occ= 0
MO #53  energy= 1.35677130121439   | 1.31505686997357   | 1.39848573245521   occ= 0
MO #54  energy= 1.35809661752615   | 1.31350475758169   | 1.40268847747061   occ= 0
MO #55  energy= 1.69934504844181   | 1.68804979787139   | 1.71064030106676   occ= 0
MO #56  energy= 1.69942850453967   | 1.68792604740362   | 1.71093096167574   occ= 0
MO #57  energy= 1.70727865809162   | 1.69305223958609   | 1.721505077321     occ= 0
MO #58  energy= 1.70727867644402   | 1.6930522308207    | 1.72150512279365   occ= 0
MO #59  energy= 1.71136265440579   | 1.69698664571194   | 1.72573866309964   occ= 0
MO #60  energy= 1.71411396021256   | 1.6958660754748    | 1.73236184468199   occ= 0
MO #61  energy= 1.71589875680589   | 1.69843752156162   | 1.73335999273685   occ= 0
MO #62  energy= 1.71589880103758   | 1.6984375807107    | 1.73336002205068   occ= 0
MO #63  energy= 1.71676015121384   | 1.69936890388155   | 1.73415139992287   occ= 0
MO #64  energy= 2.23502138184291   | 2.20029592452508   | 2.26974682923954   occ= 0
MO #65  energy= 2.37312916830359   | 2.30264370174046   | 2.44361479897576   occ= 0
MO #66  energy= 2.39347340633964   | 2.32542348520504   | 2.4615234473761    occ= 0
MO #67  energy= 2.3934735491075    | 2.32542365032293   | 2.46152356776782   occ= 0
MO #68  energy= 2.40128688457334   | 2.37666043099381   | 2.42591333815285   occ= 0
MO #69  energy= 2.40191422589459   | 2.3338243972875    | 2.47000420891063   occ= 0
MO #70  energy= 3.79387403130656   | 3.7579810779733    | 3.82976698463981   occ= 0
MO #71  energy= 3.79387425116998   | 3.75798121919398   | 3.82976728314596   occ= 0
MO #72  energy= 3.8233321152105    | 3.77679607659958   | 3.86986815382142   occ= 0
MO #73  energy= 3.92200207726904   | 3.86259985225646   | 3.98140430228162   occ= 0
MO #74  energy= 3.92200208756389   | 3.86259981188794   | 3.98140436323983   occ= 0
MO #75  energy= 3.92828239333975   | 3.84020581951975   | 4.01635896715973   occ= 0
MO #76  energy= 3.93454682058345   | 3.8725401056376    | 3.99655353552929   occ= 0
MO #77  energy= 3.93922905100175   | 3.86140711026889   | 4.01705099173459   occ= 0
MO #78  energy= 3.93922915272077   | 3.86140712316344   | 4.01705118227809   occ= 0
MO #79  energy= 3.94162991592045   | 3.85904185961317   | 4.02421797222772   occ= 0
MO #80  energy= 5.23561638489316   | 5.218695435385     | 5.2525373344013    occ= 0
MO #81  energy= 5.23561638680237   | 5.21869543528546   | 5.25253733831927   occ= 0
MO #82  energy= 5.24788917220176   | 5.22826645451989   | 5.26751188988363   occ= 0
MO #83  energy= 5.24866934177502   | 5.22828416364006   | 5.26905451990999   occ= 0
MO #84  energy= 5.25649934932131   | 5.23528876039227   | 5.27770993825036   occ= 0
MO #85  energy= 5.25649942469462   | 5.23528879901516   | 5.27771005037408   occ= 0
MO #86  energy= 5.25973973008389   | 5.23868242916369   | 5.28079703100408   occ= 0
MO #87  energy= 5.2676215837539    | 5.24169329217009   | 5.2935498753377    occ= 0
MO #88  energy= 5.26835248846151   | 5.24307103918556   | 5.29363393773747   occ= 0
MO #89  energy= 5.26835251682507   | 5.24307109409549   | 5.29363393955466   occ= 0
MO #90  energy= 5.26887999446182   | 5.24395154149694   | 5.2938084474267    occ= 0
MO #91  energy= 5.49461630216463   | 5.46370959645697   | 5.52552300747608   occ= 0
MO #92  energy= 5.49484516957519   | 5.4632514701191    | 5.52643886903129   occ= 0
MO #93  energy= 5.50933652289183   | 5.47153400129073   | 5.547139044335     occ= 0
MO #94  energy= 5.5093365690389    | 5.47153396986858   | 5.54713916805511   occ= 0
MO #95  energy= 5.51627742913607   | 5.47847623265554   | 5.55407862561659   occ= 0
MO #96  energy= 5.5227946456137    | 5.47437335054662   | 5.57121594082914   occ= 0
MO #97  energy= 5.52543084635853   | 5.4792711480118    | 5.57159054557959   occ= 0
MO #98  energy= 5.52543091765246   | 5.47927127186146   | 5.57159056431722   occ= 0
MO #99  energy= 5.52682550593186   | 5.48118553861966   | 5.57246547448619   occ= 0
MO #100 energy= 7.13056056213753   | 7.07622063127487   | 7.18490049662411   occ= 0
MO #101 energy= 7.13635525609257   | 7.11466805502362   | 7.15804245716153   occ= 0
MO #102 energy= 7.15076802602109   | 7.09875057079379   | 7.20278548306381   occ= 0
MO #103 energy= 7.1507681690781    | 7.09875073453658   | 7.2027856054352    occ= 0
MO #104 energy= 7.15706908183921   | 7.10609544247854   | 7.20804272263728   occ= 0
MO #105 energy= 8.25386610096884   | 8.21569388883701   | 8.29203831301408   occ= 0
MO #106 energy= 10.7586840179547   | 10.7105819809613   | 10.806786054948    occ= 0
MO #107 energy= 10.7586840225988   | 10.7105819228298   | 10.8067861223678   occ= 0
MO #108 energy= 10.7743109435769   | 10.7214211406732   | 10.8272007464805   occ= 0
MO #109 energy= 10.7756167217591   | 10.7013261305456   | 10.8499073129725   occ= 0
MO #110 energy= 10.7845068726826   | 10.7157464257651   | 10.8532673196001   occ= 0
MO #111 energy= 10.7845070035061   | 10.7157465869949   | 10.8532674200173   occ= 0
MO #112 energy= 10.7876575238166   | 10.7183662989311   | 10.8569487487021   occ= 0
MO #113 energy= 11.4847700854583   | 11.4514642957683   | 11.5180758751483   occ= 0
MO #114 energy= 11.4847703087454   | 11.4514644557428   | 11.5180761617481   occ= 0
MO #115 energy= 11.5162247566975   | 11.4734948129139   | 11.558954700481    occ= 0
MO #116 energy= 15.1265575254004   | 15.0904026661792   | 15.1627123853558   occ= 0
MO #117 energy= 15.1269361309638   | 15.0899761026093   | 15.1638961593183   occ= 0
MO #118 energy= 15.1450831248816   | 15.10150056768     | 15.1886656821636   occ= 0
MO #119 energy= 15.1450831974945   | 15.101500549902    | 15.1886658451685   occ= 0
MO #120 energy= 15.1531506886227   | 15.109513962787    | 15.1967874144583   occ= 0
MO #121 energy= 15.1630271113852   | 15.1071711774974   | 15.2188830454071   occ= 0
MO #122 energy= 15.1656262707727   | 15.1122092158761   | 15.2190433260343   occ= 0
MO #123 energy= 15.1656263464699   | 15.1122093556382   | 15.2190433376664   occ= 0
MO #124 energy= 15.1671159193533   | 15.1145091134428   | 15.2197227256965   occ= 0
MO #125 energy= 15.8078608781138   | 15.7803982633342   | 15.8353234928934   occ= 0
MO #126 energy= 15.8078608824735   | 15.7803982632101   | 15.835323501737    occ= 0
MO #127 energy= 15.825232479798    | 15.7939223946137   | 15.8565425649823   occ= 0
MO #128 energy= 15.8268388967679   | 15.7940340577847   | 15.8596437357511   occ= 0
MO #129 energy= 15.8372146470755   | 15.8036045318887   | 15.8708247622623   occ= 0
MO #130 energy= 15.8372147744774   | 15.803604605883    | 15.8708249430718   occ= 0
MO #131 energy= 15.8412170092441   | 15.807833374087    | 15.8746006444012   occ= 0
MO #132 energy= 15.8546670753991   | 15.8133290069358   | 15.8960051438623   occ= 0
MO #133 energy= 15.8551700779846   | 15.8147449241401   | 15.8955952318292   occ= 0
MO #134 energy= 15.855170099321    | 15.8147449853602   | 15.8955952132818   occ= 0
MO #135 energy= 15.8555723334434   | 15.8157972454139   | 15.895347421473    occ= 0
 ** Mulliken pop on meta-lowdin orthogonal AOs  **
 ** Mulliken pop  **
pop of  0V 3s        1.99968
pop of  0V 4s        0.00031
pop of  0V 5s        0.00012
pop of  0V 6s        0.00001
pop of  0V 7s        0.00000
pop of  0V 8s        0.00000
pop of  0V 9s        0.00000
pop of  0V 3px       1.99975
pop of  0V 3py       1.99975
pop of  0V 3pz       1.99970
pop of  0V 4px       0.00005
pop of  0V 4py       0.00005
pop of  0V 4pz       0.00014
pop of  0V 5px       0.00007
pop of  0V 5py       0.00007
pop of  0V 5pz       0.00008
pop of  0V 6px       0.00001
pop of  0V 6py       0.00001
pop of  0V 6pz       0.00002
pop of  0V 7px       0.00000
pop of  0V 7py       0.00000
pop of  0V 7pz       0.00000
pop of  0V 8px       0.00000
pop of  0V 8py       0.00000
pop of  0V 8pz       0.00000
pop of  0V 9px       0.00000
pop of  0V 9py       0.00000
pop of  0V 9pz       0.00000
pop of  0V 3dxy      0.99960
pop of  0V 3dyz      0.99921
pop of  0V 3dz^2     0.99868
pop of  0V 3dxz      0.99921
pop of  0V 3dx2-y2    0.00000
pop of  0V 4dxy      0.00003
pop of  0V 4dyz      0.00068
pop of  0V 4dz^2     0.00110
pop of  0V 4dxz      0.00068
pop of  0V 4dx2-y2    0.00000
pop of  0V 5dxy      0.00013
pop of  0V 5dyz      0.00002
pop of  0V 5dz^2     0.00001
pop of  0V 5dxz      0.00002
pop of  0V 5dx2-y2    0.00000
pop of  0V 6dxy      0.00002
pop of  0V 6dyz      0.00002
pop of  0V 6dz^2     0.00002
pop of  0V 6dxz      0.00002
pop of  0V 6dx2-y2    0.00000
pop of  0V 7dxy      0.00019
pop of  0V 7dyz      0.00005
pop of  0V 7dz^2     0.00002
pop of  0V 7dxz      0.00005
pop of  0V 7dx2-y2    0.00000
pop of  0V 8dxy      0.00002
pop of  0V 8dyz      0.00000
pop of  0V 8dz^2     0.00000
pop of  0V 8dxz      0.00000
pop of  0V 8dx2-y2    0.00000
pop of  0V 4fy^3     0.00002
pop of  0V 4fxyz     0.00000
pop of  0V 4fyz^2    0.00000
pop of  0V 4fz^3     0.00001
pop of  0V 4fxz^2    0.00000
pop of  0V 4fzx^2    0.00000
pop of  0V 4fx^3     0.00002
pop of  0V 5fy^3     0.00005
pop of  0V 5fxyz     0.00000
pop of  0V 5fyz^2    0.00001
pop of  0V 5fz^3     0.00003
pop of  0V 5fxz^2    0.00001
pop of  0V 5fzx^2    0.00000
pop of  0V 5fx^3     0.00005
pop of  0V 6fy^3     0.00004
pop of  0V 6fxyz     0.00000
pop of  0V 6fyz^2    0.00000
pop of  0V 6fz^3     0.00001
pop of  0V 6fxz^2    0.00000
pop of  0V 6fzx^2    0.00000
pop of  0V 6fx^3     0.00004
pop of  0V 7fy^3     0.00000
pop of  0V 7fxyz     0.00000
pop of  0V 7fyz^2    0.00000
pop of  0V 7fz^3     0.00000
pop of  0V 7fxz^2    0.00000
pop of  0V 7fzx^2    0.00000
pop of  0V 7fx^3     0.00000
pop of  0V 5g-4      0.00000
pop of  0V 5g-3      0.00000
pop of  0V 5g-2      0.00000
pop of  0V 5g-1      0.00000
pop of  0V 5g 0      0.00000
pop of  0V 5g 1      0.00000
pop of  0V 5g 2      0.00000
pop of  0V 5g 3      0.00000
pop of  0V 5g 4      0.00000
pop of  0V 6g-4      0.00000
pop of  0V 6g-3      0.00000
pop of  0V 6g-2      0.00000
pop of  0V 6g-1      0.00000
pop of  0V 6g 0      0.00000
pop of  0V 6g 1      0.00000
pop of  0V 6g 2      0.00000
pop of  0V 6g 3      0.00000
pop of  0V 6g 4      0.00001
pop of  0V 7g-4      0.00000
pop of  0V 7g-3      0.00000
pop of  0V 7g-2      0.00000
pop of  0V 7g-1      0.00000
pop of  0V 7g 0      0.00001
pop of  0V 7g 1      0.00000
pop of  0V 7g 2      0.00000
pop of  0V 7g 3      0.00000
pop of  0V 7g 4      0.00001
pop of  0V 6h-5      0.00000
pop of  0V 6h-4      0.00000
pop of  0V 6h-3      0.00000
pop of  0V 6h-2      0.00000
pop of  0V 6h-1      0.00000
pop of  0V 6h 0      0.00000
pop of  0V 6h 1      0.00000
pop of  0V 6h 2      0.00000
pop of  0V 6h 3      0.00000
pop of  0V 6h 4      0.00000
pop of  0V 6h 5      0.00000
pop of  0V 7h-5      0.00000
pop of  0V 7h-4      0.00000
pop of  0V 7h-3      0.00000
pop of  0V 7h-2      0.00000
pop of  0V 7h-1      0.00000
pop of  0V 7h 0      0.00000
pop of  0V 7h 1      0.00000
pop of  0V 7h 2      0.00000
pop of  0V 7h 3      0.00000
pop of  0V 7h 4      0.00000
pop of  0V 7h 5      0.00000
 ** Mulliken atomic charges  **
charge of  0V =      1.00000

******** <class 'pyscf.mcscf.mc1step.CASSCF'> flags ********
CAS (4e+0e, 6o), ncore = 4, nvir = 125
max_cycle_macro = 50
max_cycle_micro = 4
conv_tol = 1e-07
conv_tol_grad = None
orbital rotation max_stepsize = 0.02
augmented hessian ah_max_cycle = 30
augmented hessian ah_conv_tol = 1e-12
augmented hessian ah_linear dependence = 1e-14
augmented hessian ah_level shift = 0
augmented hessian ah_start_tol = 2.5
augmented hessian ah_start_cycle = 3
augmented hessian ah_grad_trust_region = 3
kf_trust_region = 3
kf_interval = 4
ci_response_space = 4
ci_grad_trust_region = 3
with_dep4 0
natorb = False
canonicalization = True
sorting_mo_energy = False
chkfile = ./scratch/44788/tmp01RGWq
max_memory 4000 MB (current use 746 MB)
internal_rotation = False

******** SHCI flags ********
executable             = /home/bamu3429/softwares/dice/Dice
mpiprefix              = srun -n20
scratchDirectory       = ./scratch/44788
integralFile           = ./FCIDUMP
configFile             = ./input.dat
outputFile             = ./output.dat
maxIter                = 6
sweep_iter             = []
sweep_epsilon          = []
nPTiter                = 0
Stochastic             = True
fullrestart            = False
restart                = False
num_thrds              = 12
memory                 = None

CASCI E = -70.4787825207148  S^2 = 6.0000000
Set conv_tol_grad to 0.000316228
macro iter 1 (6 JK  1 micro), CASSCF E = -70.4787825275551  dE = -6.8402812e-09  S^2 = 6.0000000
               |grad[o]|=7.46e-05  |grad[c]|= None  |ddm|=    0
1-step CASSCF converged in 1 macro (6 JK 1 micro) steps
CASSCF canonicalization
CASSCF energy = -70.4787825275551


--------------------------------------------------
                 ICMPSPT CALCULATION              
--------------------------------------------------

Perturbation type: MRLCC
With fully internally contracted scheme
With third order correction

Preparing necessary RDMs
......production of RDMs took       2.20 sec
Reading binary 4RDM from DICE
......reading the RDM took          1.06 sec

(GOOD) Trace 4RDM:     24.0 =    4*    3*    2*    1
(GOOD) Trace 3RDM:     24.0 =    4*    3*    2
(GOOD) Trace 2RDM:     12.0 =    4*    3
(GOOD) Trace 1RDM:      4.0 =    4

Producing the integrals
......production of INT took     243.52 sec

Energy_core =  -64.50627960
Energy      =  -70.47878253

WARNING: Have to use natural orbitals from CAASCF
         offdiagonal elements:    0.67569577

Basic ingredients written to int/
......savings of INGREDIENTS took      66.08 sec

Second-order:
perturber CCVV --        -0.154974326
perturber CCAV --        -0.062783374
perturber ACVV --        -0.168658983
perturber CCAA --        -0.013721960
perturber AAVV --        -0.054916934
perturber CAAV --        -0.067493432
perturber AAAV --        -0.000186997
perturber AAAC --        -0.000017904
Total:                   -0.522753909

Third-order:              0.000734721

Total PT       --        -0.522019188

