 &FCI NORB=3 ,NELEC=3 ,MS2=1,
  ORBSYM=1,1,1,
  ISYM=1,
 &END
  8.921031989818e-01    1  1  1  1
  4.588945301657e-02    2  1  2  1
  8.095199903047e-01    2  2  1  1
  9.110620274384e-01    2  2  2  2
  4.876427061516e-02    3  1  3  1
  4.588957486043e-02    3  2  3  2
  8.063740384821e-01    3  3  1  1
  8.095208156414e-01    3  3  2  2
  8.921047708676e-01    3  3  3  3
 -2.855037554277e+00    1  1  0  0
 -2.869183630715e+00    2  2  0  0
 -2.855038911655e+00    3  3  0  0
     -8.911685099251   0  0  0  0
