#INFO: **** input file is /projects/bamu3429/BENCHMARK/fresh_atoms/MRPT/vqz/atoms/O_1/mrpt.py ****
import json
from pyscf import gto,scf,mcscf, fci, lo, ci, cc
from pyscf.scf import ROHF, UHF,ROKS
import numpy as np
import pandas as pd

# THIS IS WERE IT STARTS ====================================

df=json.load(open("../../../trail.json"))

spins={'Sc':1, 'Ti':2, 'V':3, 'Cr':6, 'Mn':5, 'Fe':4, 'Cu':1}

nd={'Sc':(1,0), 'Ti':(2,0), 'V':(3,0), 'Cr':(5,0), 'Mn':(5,0), 'Fe':(5,1), 'Cu':(5,5)}

cas={'Sc':3, 'Ti':4, 'V':5, 'Cr':6, 'Mn':7, 'Fe':8, 'Cu':11}

datacsv={}
for nm in ['atom','charge','method','basis','pseudopotential','hf',
           'totalenergy','totalenergy-stocherr','totalenergy-syserr']:
  datacsv[nm]=[]

basis='vqz'
el='O'
charge=1

mol=gto.Mole()
mol.ecp={}
mol.basis={}
mol.ecp[el]=gto.basis.parse_ecp(df[el]['ecp'])
mol.basis[el]=gto.basis.parse(df[el][basis])
mol.charge=charge
mol.spin=1
mol.build(atom="%s 0. 0. 0."%el,verbose=4)

m=ROHF(mol)
m.level_shift=1000.0
#dm=m.from_chk("../../../../HF/atoms/"+el+basis+str(charge)+".chk")
hf=m.kernel()#dm)
m.analyze()

from pyscf.shciscf import shci
mc = shci.SHCISCF(m, 3, 3)
#mc.fcisolver.conv_tol = 1e-14
mc.fcisolver.mpiprefix="srun -n20"
mc.fcisolver.num_thrds=12
mc.verbose = 4
cas=mc.kernel()[0]
 
from pyscf.icmpspt import icmpspt
pt=icmpspt.icmpspt(mc,rdmM=500, PTM=1000,\
                          pttype="MRLCC",\
                          third_order=True,\
                          fully_ic=True,\
                          do_dm4=True)

datacsv['atom'].append(el)
datacsv['charge'].append(charge)
datacsv['method'].append('MRPT')
datacsv['basis'].append(basis)
datacsv['pseudopotential'].append('trail')
datacsv['hf'].append(hf)
datacsv['totalenergy'].append(cas+pt)
datacsv['totalenergy-stocherr'].append(0.0)
datacsv['totalenergy-syserr'].append(0.0)
pd.DataFrame(datacsv).to_csv(el+".csv",index=False)

#INFO: ******************** input file end ********************


System: ('Linux', 'bnode0302.rc.int.colorado.edu', '3.10.0-514.41.1.el7.x86_64', '#1 SMP Wed Jan 17 10:26:16 EST 2018', 'x86_64', 'x86_64')  Threads 28
Python 2.7.11 (default, Mar 22 2016, 01:42:54) 
[GCC Intel(R) C++ gcc 4.8 mode]
numpy 1.11.1  scipy 0.17.1
Date: Thu Apr 19 11:13:07 2018
PySCF version 1.4.6
PySCF path  /projects/bamu3429/softwares/pyscf_uptodate/pyscf
GIT ORIG_HEAD f3591ef22170896a4cdc2aadaa6f5da388ffcadb
GIT HEAD      ref: refs/heads/master
GIT master branch  1847583fb1d2472321833d3c71c8b7008e5fabf5

[INPUT] VERBOSE 4
[INPUT] num atoms = 1
[INPUT] num electrons = 5
[INPUT] charge = 1
[INPUT] spin (= nelec alpha-beta = 2S) = 1
[INPUT] symmetry False subgroup None
[INPUT]  1 O      0.000000000000   0.000000000000   0.000000000000 AA    0.000000000000   0.000000000000   0.000000000000 Bohr
[INPUT] ---------------- BASIS SET ---------------- 
[INPUT] l, kappa, [nprim/nctr], expnt,             c_1 c_2 ...
[INPUT] O
[INPUT] 0    0    [10   /1   ]  57.663349         -0.002794
                                35.726816         0.023976
                                22.453757         -0.115974
                                14.732301         0.288033
                                9.739917          -0.274786
                                5.042008          -0.083789
                                2.157818          0.063778
                                1.002916          0.410182
                                0.421839          0.504044
                                0.173041          0.172152
[INPUT] 0    0    [1    /1   ]  1.70747              1
[INPUT] 0    0    [1    /1   ]  0.617491             1
[INPUT] 0    0    [1    /1   ]  0.223309             1
[INPUT] 0    0    [1    /1   ]  0.084592             1
[INPUT] 1    0    [10   /1   ]  52.47406          -0.000522
                                32.138432         0.004857
                                19.458579         -0.027749
                                11.839344         0.074258
                                7.91003           0.014369
                                3.670858          0.153479
                                1.53966           0.283685
                                0.647119          0.358201
                                0.267853          0.29559
                                0.107198          0.104889
[INPUT] 1    0    [1    /1   ]  1.345435             1
[INPUT] 1    0    [1    /1   ]  0.458358             1
[INPUT] 1    0    [1    /1   ]  0.156151             1
[INPUT] 1    0    [1    /1   ]  0.045837             1
[INPUT] 2    0    [1    /1   ]  3.661538             1
[INPUT] 2    0    [1    /1   ]  1.279275             1
[INPUT] 2    0    [1    /1   ]  0.446952             1
[INPUT] 2    0    [1    /1   ]  0.148191             1
[INPUT] 3    0    [1    /1   ]  2.598839             1
[INPUT] 3    0    [1    /1   ]  0.849032             1
[INPUT] 3    0    [1    /1   ]  0.310222             1
[INPUT] 4    0    [1    /1   ]  1.838653             1
[INPUT] 4    0    [1    /1   ]  0.706784             1
nuclear repulsion = 0
number of shells = 19
number of NR pGTOs = 115
number of NR cGTOs = 79
basis = {'O': [[0, [57.663349, -0.002794], [35.726816, 0.023976], [22.453757, -0.115974], [14.732301, 0.288033], [9.739917, -0.274786], [5.042008, -0.083789], [2.157818, 0.063778], [1.002916, 0.410182], [0.421839, 0.504044], [0.173041, 0.172152]], [0, [1.70747, 1.0]], [0, [0.617491, 1.0]], [0, [0.223309, 1.0]], [0, [0.084592, 1.0]], [1, [52.47406, -0.000522], [32.138432, 0.004857], [19.458579, -0.027749], [11.839344, 0.074258], [7.91003, 0.014369], [3.670858, 0.153479], [1.53966, 0.283685], [0.647119, 0.358201], [0.267853, 0.29559], [0.107198, 0.104889]], [1, [1.345435, 1.0]], [1, [0.458358, 1.0]], [1, [0.156151, 1.0]], [1, [0.045837, 1.0]], [2, [3.661538, 1.0]], [2, [1.279275, 1.0]], [2, [0.446952, 1.0]], [2, [0.148191, 1.0]], [3, [2.598839, 1.0]], [3, [0.849032, 1.0]], [3, [0.310222, 1.0]], [4, [1.838653, 1.0]], [4, [0.706784, 1.0]]]}
ecp = {'O': [2, [[-1, [[], [[10.27717748, 6.0]], [[15.99566749, 1232.50197768], [10.46901775, -696.47008301], [14.6384801, -2654.22657081], [12.57591181, 2101.67732548]], [[7.77739102, 61.66306486]]]], [0, [[], [], [[12.39426073, -656683.37638839], [12.38126171, 657858.57667068], [8.57671033, 511.50098405], [9.89256508, -2579.54665641], [28.05641604, -57.68129584], [17.24753607, 970.30940152]], []]], [1, [[], [], [[14.78918914, -363027.24258186], [14.82014018, 361852.52314043], [22.89622221, -1300.20069256], [8.51331893, -181.96869573], [11.48609758, 2194.87589959], [27.22017524, 451.19906206]], []]]]]}
CPU time:         3.43


******** <class 'pyscf.scf.rohf.ROHF'> flags ********
method = ROHF
initial guess = minao
damping factor = 0
level shift factor = 1000.0
DIIS = <class 'pyscf.scf.diis.CDIIS'>
DIIS start cycle = 1
DIIS space = 8
SCF tol = 1e-09
SCF gradient tol = None
max. SCF cycles = 50
direct_scf = True
direct_scf_tol = 1e-13
chkfile to save SCF result = /rc_scratch/bamu3429/tmpHQcvmf
max_memory 4000 MB (current use 80 MB)
num. doubly occ = 2  num. singly occ = 1
Set gradient conv threshold to 3.16228e-05
init E= -15.1341721311697

WARN: HOMO 332.92959874416 >= LUMO 332.929598744161

cycle= 1 E= -14.927270141393  delta_E= 0.207  |g|= 0.602  |ddm|= 1.29
  HOMO = 499.00620215939  LUMO = 999.298645949317
cycle= 2 E= -14.9278097404303  delta_E= -0.00054  |g|=  0.6  |ddm|= 0.0031
  HOMO = 499.126770335041  LUMO = 999.414270859918
cycle= 3 E= -14.9282829976485  delta_E= -0.000473  |g|= 0.598  |ddm|= 0.00271
  HOMO = 499.147360417307  LUMO = 999.434173696086
cycle= 4 E= -14.9287357013656  delta_E= -0.000453  |g|= 0.596  |ddm|= 0.00251
  HOMO = 499.148640777341  LUMO = 999.435572280781
cycle= 5 E= -14.9291849264714  delta_E= -0.000449  |g|= 0.594  |ddm|= 0.00253
  HOMO = 499.17407248219  LUMO = 999.453644873493
cycle= 6 E= -14.9296256202676  delta_E= -0.000441  |g|= 0.593  |ddm|= 0.00284
  HOMO = 499.174715684311  LUMO = 999.452371488884
cycle= 7 E= -14.9300621119565  delta_E= -0.000436  |g|= 0.591  |ddm|= 0.00269
  HOMO = 499.167872515751  LUMO = 999.450750616004
cycle= 8 E= -14.9304984454082  delta_E= -0.000436  |g|= 0.589  |ddm|= 0.00254
  HOMO = 499.16668090694  LUMO = 999.450142732338
cycle= 9 E= -14.9309329366117  delta_E= -0.000434  |g|= 0.588  |ddm|= 0.00255
  HOMO = 499.169658572227  LUMO = 999.450302094971
cycle= 10 E= -14.9313634697564  delta_E= -0.000431  |g|= 0.586  |ddm|= 0.00252
  HOMO = 499.171933238343  LUMO = 999.451371436081
cycle= 11 E= -14.9317922262253  delta_E= -0.000429  |g|= 0.584  |ddm|= 0.00259
  HOMO = 499.160092928172  LUMO = 999.441820881013
cycle= 12 E= -14.9322241170534  delta_E= -0.000432  |g|= 0.583  |ddm|= 0.00234
  HOMO = 499.168055070225  LUMO = 999.448298818067
cycle= 13 E= -14.9326500503344  delta_E= -0.000426  |g|= 0.581  |ddm|= 0.00243
  HOMO = 499.15976492305  LUMO = 999.441338850839
cycle= 14 E= -14.9330753388965  delta_E= -0.000425  |g|= 0.58  |ddm|= 0.00223
  HOMO = 499.155735046143  LUMO = 999.438540862667
cycle= 15 E= -14.9335036844207  delta_E= -0.000428  |g|= 0.578  |ddm|= 0.00243
  HOMO = 499.148422765263  LUMO = 999.432162430894
cycle= 16 E= -14.9339328769282  delta_E= -0.000429  |g|= 0.576  |ddm|= 0.00229
  HOMO = 499.149480385576  LUMO = 999.433138570341
cycle= 17 E= -14.9343590240565  delta_E= -0.000426  |g|= 0.575  |ddm|= 0.00224
  HOMO = 499.150495279449  LUMO = 999.433142170019
cycle= 18 E= -14.9347816625524  delta_E= -0.000423  |g|= 0.573  |ddm|= 0.0024
  HOMO = 499.151221627318  LUMO = 999.434300855145
cycle= 19 E= -14.9352014547783  delta_E= -0.00042  |g|= 0.572  |ddm|= 0.00234
  HOMO = 499.155526767323  LUMO = 999.437879208385
cycle= 20 E= -14.9356154890372  delta_E= -0.000414  |g|= 0.57  |ddm|= 0.00243
  HOMO = 499.147299397874  LUMO = 999.431606639279
cycle= 21 E= -14.9360331380959  delta_E= -0.000418  |g|= 0.569  |ddm|= 0.00236
  HOMO = 499.147426136316  LUMO = 999.431358952884
cycle= 22 E= -14.9364477273679  delta_E= -0.000415  |g|= 0.567  |ddm|= 0.00237
  HOMO = 499.145872209519  LUMO = 999.430578309458
cycle= 23 E= -14.9368604743437  delta_E= -0.000413  |g|= 0.565  |ddm|= 0.00233
  HOMO = 499.155377794488  LUMO = 999.438216214137
cycle= 24 E= -14.937259600841  delta_E= -0.000399  |g|= 0.564  |ddm|= 0.0021
  HOMO = 499.162304320957  LUMO = 999.443746635029
cycle= 25 E= -14.9376543751047  delta_E= -0.000395  |g|= 0.562  |ddm|= 0.00217
  HOMO = 499.167931836327  LUMO = 999.448900954453
cycle= 26 E= -14.9380455967961  delta_E= -0.000391  |g|= 0.561  |ddm|= 0.00239
  HOMO = 499.171284466868  LUMO = 999.452134810868
cycle= 27 E= -14.9384338243129  delta_E= -0.000388  |g|= 0.559  |ddm|= 0.00252
  HOMO = 499.171211449025  LUMO = 999.45214275144
cycle= 28 E= -14.938819231947  delta_E= -0.000385  |g|= 0.558  |ddm|= 0.00244
  HOMO = 499.160391398524  LUMO = 999.444757674705
cycle= 29 E= -14.9392080504969  delta_E= -0.000389  |g|= 0.556  |ddm|= 0.00247
  HOMO = 499.153832644933  LUMO = 999.439050477035
cycle= 30 E= -14.9395969783386  delta_E= -0.000389  |g|= 0.555  |ddm|= 0.00246
  HOMO = 499.15215376099  LUMO = 999.437127228765
cycle= 31 E= -14.9399855476538  delta_E= -0.000389  |g|= 0.553  |ddm|= 0.00247
  HOMO = 499.15578787372  LUMO = 999.440397602404
cycle= 32 E= -14.9403712447779  delta_E= -0.000386  |g|= 0.552  |ddm|= 0.00253
  HOMO = 499.152695295465  LUMO = 999.438731703594
cycle= 33 E= -14.9407547003684  delta_E= -0.000383  |g|= 0.551  |ddm|= 0.00245
  HOMO = 499.149423061413  LUMO = 999.434893176708
cycle= 34 E= -14.9411367983029  delta_E= -0.000382  |g|= 0.549  |ddm|= 0.00213
  HOMO = 499.154873768419  LUMO = 999.437822139231
cycle= 35 E= -14.9415112391626  delta_E= -0.000374  |g|= 0.548  |ddm|= 0.00191
  HOMO = 499.165576150658  LUMO = 999.446147421563
cycle= 36 E= -14.9418826305549  delta_E= -0.000371  |g|= 0.546  |ddm|= 0.00241
  HOMO = 499.137961286077  LUMO = 999.427383627258
cycle= 37 E= -14.9422632511416  delta_E= -0.000381  |g|= 0.545  |ddm|= 0.00221
  HOMO = 499.132515571002  LUMO = 999.42297384208
cycle= 38 E= -14.9426426578727  delta_E= -0.000379  |g|= 0.543  |ddm|= 0.00212
  HOMO = 499.130460830282  LUMO = 999.421807086237
cycle= 39 E= -14.9430217224219  delta_E= -0.000379  |g|= 0.542  |ddm|= 0.00218
  HOMO = 499.131550716489  LUMO = 999.422450805214
cycle= 40 E= -14.9433966329696  delta_E= -0.000375  |g|= 0.54  |ddm|= 0.00212
  HOMO = 499.131071606617  LUMO = 999.422387819668
cycle= 41 E= -14.9437713794739  delta_E= -0.000375  |g|= 0.539  |ddm|= 0.00226
  HOMO = 499.142127047088  LUMO = 999.430834576195
cycle= 42 E= -14.9441389244501  delta_E= -0.000368  |g|= 0.537  |ddm|= 0.00255
  HOMO = 499.147230736269  LUMO = 999.434286660142
cycle= 43 E= -14.9445002494037  delta_E= -0.000361  |g|= 0.536  |ddm|= 0.00249
  HOMO = 499.159909453954  LUMO = 999.443624088957
cycle= 44 E= -14.9448511710342  delta_E= -0.000351  |g|= 0.535  |ddm|= 0.00218
  HOMO = 499.165627674741  LUMO = 999.4486151215
cycle= 45 E= -14.9451986363943  delta_E= -0.000347  |g|= 0.533  |ddm|= 0.0025
  HOMO = 499.165596390992  LUMO = 999.447955647395
cycle= 46 E= -14.9455420518597  delta_E= -0.000343  |g|= 0.532  |ddm|= 0.00231
  HOMO = 499.142149691441  LUMO = 999.431875924753
cycle= 47 E= -14.9459002103701  delta_E= -0.000358  |g|= 0.531  |ddm|= 0.00248
  HOMO = 499.142076071896  LUMO = 999.431201105458
cycle= 48 E= -14.9462574232567  delta_E= -0.000357  |g|= 0.529  |ddm|= 0.00244
  HOMO = 499.139542615506  LUMO = 999.429441507853
cycle= 49 E= -14.9466126877735  delta_E= -0.000355  |g|= 0.528  |ddm|= 0.00236
  HOMO = 499.141250370881  LUMO = 999.430570879764
cycle= 50 E= -14.946961823321  delta_E= -0.000349  |g|= 0.526  |ddm|= 0.00186
  HOMO = -1.01594396167449  LUMO = -0.682808312625802
Extra cycle  E= -15.0246203474326  delta_E= -0.0777  |g|= 0.132  |ddm|= 0.777
SCF not converged.
SCF energy = -15.0246203474326 after 50 cycles
**** MO energy ****
                Roothaan           | alpha              | beta
MO #1   energy= -1.95877553758063  | -2.04286045576298  | -1.87469061939828  occ= 2
MO #2   energy= -1.29912599761229  | -1.32022921211198  | -1.2780227831126   occ= 2
MO #3   energy= -1.01594396167449  | -1.4093979996713   | -0.556061174295414 occ= 1
MO #4   energy= -0.682808312625802 | -0.703086458626657 | -0.662530166624953 occ= 0
MO #5   energy= -0.124996605866745 | -0.129949896172303 | -0.12004331556119  occ= 0
MO #6   energy= -0.0924837576091048 | -0.0933116910217545 | -0.0916558241964546 occ= 0
MO #7   energy= -0.0883673800687263 | -0.0890310398583612 | -0.0877037202790987 occ= 0
MO #8   energy= -0.0830174174766984 | -0.0965685336051598 | -0.0891663964905291 occ= 0
MO #9   energy= 0.142400507497662  | 0.137588001496456  | 0.147213013498867  occ= 0
MO #10  energy= 0.143188404374063  | 0.136544067012813  | 0.149832741735318  occ= 0
MO #11  energy= 0.149589750554353  | 0.148688334889076  | 0.150491166219627  occ= 0
MO #12  energy= 0.156067631216399  | 0.14941877410009   | 0.162716488332719  occ= 0
MO #13  energy= 0.157258276703118  | 0.152569145181791  | 0.161947408224443  occ= 0
MO #14  energy= 0.248191642481274  | 0.244849930477072  | 0.25153335448548   occ= 0
MO #15  energy= 0.251426980836549  | 0.248495808902075  | 0.254358152771015  occ= 0
MO #16  energy= 0.262202547994957  | 0.223563593555595  | 0.263823164220068  occ= 0
MO #17  energy= 0.593971528067108  | 0.58169991107472   | 0.60624314505947   occ= 0
MO #18  energy= 0.88550886731372   | 0.881106982660568  | 0.889910751966873  occ= 0
MO #19  energy= 0.885778157058162  | 0.881132101534669  | 0.89044464550732   occ= 0
MO #20  energy= 0.898842963596199  | 0.897233716421983  | 0.900452210770415  occ= 0
MO #21  energy= 0.902719545505354  | 0.899251103898051  | 0.906187987112658  occ= 0
MO #22  energy= 0.907172500769816  | 0.905696018981072  | 0.908648982558563  occ= 0
MO #23  energy= 0.919795822465587  | 0.915240218894272  | 0.924237707812299  occ= 0
MO #24  energy= 0.920145377075301  | 0.915970113700125  | 0.924320640450478  occ= 0
MO #25  energy= 0.999686236789616  | 0.980535970679087  | 1.01883650290015   occ= 0
MO #26  energy= 1.00119886469484   | 0.974335862451745  | 1.02806186693792   occ= 0
MO #27  energy= 1.01195736474688   | 1.00806529950463   | 1.01584942998913   occ= 0
MO #28  energy= 1.02380517099819   | 0.996884752320721  | 1.05072558967565   occ= 0
MO #29  energy= 1.02566859565561   | 1.00614771785829   | 1.04518947345293   occ= 0
MO #30  energy= 1.72525852333683   | 1.71748320163568   | 1.73303384503798   occ= 0
MO #31  energy= 1.73973074138175   | 1.68329403744506   | 1.78682116209666   occ= 0
MO #32  energy= 1.75042935170591   | 1.74290270704545   | 1.75795599636639   occ= 0
MO #33  energy= 3.06017946816749   | 3.0533634465761    | 3.06699548975888   occ= 0
MO #34  energy= 3.06026837693212   | 3.05337149574169   | 3.06716525812256   occ= 0
MO #35  energy= 3.08305621561709   | 3.07933064643055   | 3.08678178480363   occ= 0
MO #36  energy= 3.0851284241788    | 3.08021880030339   | 3.09003804805422   occ= 0
MO #37  energy= 3.09641547535655   | 3.09454646055691   | 3.09828449015618   occ= 0
MO #38  energy= 3.10688825902721   | 3.10212046195276   | 3.11165605610166   occ= 0
MO #39  energy= 3.10935233414109   | 3.10594178921485   | 3.11276287906734   occ= 0
MO #40  energy= 3.13168495073891   | 3.12510203023979   | 3.13826787123803   occ= 0
MO #41  energy= 3.1318037970599    | 3.12532747746309   | 3.13828011665672   occ= 0
MO #42  energy= 3.31573616980897   | 3.30001970367793   | 3.33145263594001   occ= 0
MO #43  energy= 3.31638837323025   | 3.29972286962132   | 3.33308309394563   occ= 0
MO #44  energy= 3.34549176182097   | 3.33973092999247   | 3.35125259364946   occ= 0
MO #45  energy= 3.35459736747238   | 3.34208743005582   | 3.36710730488894   occ= 0
MO #46  energy= 3.36431237755076   | 3.35881129579653   | 3.36981345930499   occ= 0
MO #47  energy= 3.39328087782094   | 3.37684752658881   | 3.40950391844139   occ= 0
MO #48  energy= 3.39403106063444   | 3.37879180682496   | 3.40927031444392   occ= 0
MO #49  energy= 3.52289747138034   | 3.49486001755881   | 3.55093492520187   occ= 0
MO #50  energy= 3.52706744791079   | 3.48834407174457   | 3.565790824077     occ= 0
MO #51  energy= 3.55127231623364   | 3.54504684107762   | 3.55749779138966   occ= 0
MO #52  energy= 3.57661236990236   | 3.53823073074779   | 3.61499400905694   occ= 0
MO #53  energy= 3.57992549849317   | 3.55208278421668   | 3.60776821276966   occ= 0
MO #54  energy= 3.83420645709109   | 3.81125807574844   | 3.85715483843385   occ= 0
MO #55  energy= 8.08904437589968   | 8.08079244138234   | 8.09729631041704   occ= 0
MO #56  energy= 8.12354363030182   | 8.07360873872025   | 8.17340973944135   occ= 0
MO #57  energy= 8.15790957421045   | 8.14967919587473   | 8.16613995254627   occ= 0
MO #58  energy= 9.69831435820123   | 9.68307743811774   | 9.71355127828471   occ= 0
MO #59  energy= 9.69849925209024   | 9.6830582500218    | 9.71394025415872   occ= 0
MO #60  energy= 9.7399646623122    | 9.73177342261383   | 9.74815590201057   occ= 0
MO #61  energy= 9.74407678722132   | 9.73306551389387   | 9.75508806054876   occ= 0
MO #62  energy= 9.76423426903092   | 9.75997943134107   | 9.76848910672075   occ= 0
MO #63  energy= 9.78421353828285   | 9.77332488629174   | 9.795102190274     occ= 0
MO #64  energy= 9.78845459552451   | 9.78045703190387   | 9.79645215914515   occ= 0
MO #65  energy= 9.83022343553676   | 9.81513828872791   | 9.84530858234557   occ= 0
MO #66  energy= 9.83041944628055   | 9.81554721503538   | 9.84529167752577   occ= 0
MO #67  energy= 10.5491967462218   | 10.5259496616829   | 10.5724438307606   occ= 0
MO #68  energy= 10.5503462035083   | 10.5255091321273   | 10.5751942307248   occ= 0
MO #69  energy= 10.5948831721297   | 10.5863763817148   | 10.6033899625446   occ= 0
MO #70  energy= 10.6095198227133   | 10.5908588226932   | 10.6281808227333   occ= 0
MO #71  energy= 10.624088614776    | 10.6156514036305   | 10.6325258259216   occ= 0
MO #72  energy= 10.6695180948854   | 10.6450246806634   | 10.6939796817142   occ= 0
MO #73  energy= 10.6707059431648   | 10.6478087669538   | 10.6936031193759   occ= 0
MO #74  energy= 11.4498873086376   | 11.4265392901376   | 11.4732353271375   occ= 0
MO #75  energy= 11.4559431148507   | 11.4239706225156   | 11.4879156071857   occ= 0
MO #76  energy= 11.4947412888497   | 11.4890115208229   | 11.5004710568764   occ= 0
MO #77  energy= 11.5347086890865   | 11.5029858362783   | 11.5664315418947   occ= 0
MO #78  energy= 11.540825985848    | 11.5177142727497   | 11.5639376989464   occ= 0
MO #79  energy= 18.572182926559    | 18.5558735182344   | 18.588492334884    occ= 0
 ** Mulliken pop on meta-lowdin orthogonal AOs  **
 ** Mulliken pop  **
pop of  0O 2s        1.99141
pop of  0O 3s        0.00216
pop of  0O 4s        0.00017
pop of  0O 5s        0.00347
pop of  0O 6s        0.00272
pop of  0O 2px       0.96052
pop of  0O 2py       0.01704
pop of  0O 2pz       1.95861
pop of  0O 3px       0.00419
pop of  0O 3py       0.00005
pop of  0O 3pz       0.00394
pop of  0O 4px       0.00233
pop of  0O 4py       0.00003
pop of  0O 4pz       0.00313
pop of  0O 5px       0.02050
pop of  0O 5py       0.00025
pop of  0O 5pz       0.01942
pop of  0O 6px       0.00536
pop of  0O 6py       0.00006
pop of  0O 6pz       0.00438
pop of  0O 3dxy      0.00000
pop of  0O 3dyz      0.00000
pop of  0O 3dz^2     0.00000
pop of  0O 3dxz      0.00000
pop of  0O 3dx2-y2    0.00000
pop of  0O 4dxy      0.00000
pop of  0O 4dyz      0.00000
pop of  0O 4dz^2     0.00000
pop of  0O 4dxz      0.00000
pop of  0O 4dx2-y2    0.00000
pop of  0O 5dxy      0.00000
pop of  0O 5dyz      0.00000
pop of  0O 5dz^2     0.00003
pop of  0O 5dxz      0.00000
pop of  0O 5dx2-y2    0.00001
pop of  0O 6dxy      0.00000
pop of  0O 6dyz      0.00000
pop of  0O 6dz^2     0.00001
pop of  0O 6dxz      0.00000
pop of  0O 6dx2-y2    0.00000
pop of  0O 4fy^3     0.00000
pop of  0O 4fxyz     0.00000
pop of  0O 4fyz^2    0.00000
pop of  0O 4fz^3     0.00003
pop of  0O 4fxz^2    0.00002
pop of  0O 4fzx^2    0.00001
pop of  0O 4fx^3     0.00000
pop of  0O 5fy^3     0.00000
pop of  0O 5fxyz     0.00000
pop of  0O 5fyz^2    0.00000
pop of  0O 5fz^3     0.00005
pop of  0O 5fxz^2    0.00004
pop of  0O 5fzx^2    0.00001
pop of  0O 5fx^3     0.00000
pop of  0O 6fy^3     0.00000
pop of  0O 6fxyz     0.00000
pop of  0O 6fyz^2    0.00000
pop of  0O 6fz^3     0.00001
pop of  0O 6fxz^2    0.00001
pop of  0O 6fzx^2    0.00000
pop of  0O 6fx^3     0.00000
pop of  0O 5g-4      0.00000
pop of  0O 5g-3      0.00000
pop of  0O 5g-2      0.00000
pop of  0O 5g-1      0.00000
pop of  0O 5g 0      0.00000
pop of  0O 5g 1      0.00000
pop of  0O 5g 2      0.00000
pop of  0O 5g 3      0.00000
pop of  0O 5g 4      0.00000
pop of  0O 6g-4      0.00000
pop of  0O 6g-3      0.00000
pop of  0O 6g-2      0.00000
pop of  0O 6g-1      0.00000
pop of  0O 6g 0      0.00000
pop of  0O 6g 1      0.00000
pop of  0O 6g 2      0.00000
pop of  0O 6g 3      0.00000
pop of  0O 6g 4      0.00000
 ** Mulliken atomic charges  **
charge of  0O =      1.00000

******** <class 'pyscf.mcscf.mc1step.CASSCF'> flags ********
CAS (2e+1e, 3o), ncore = 1, nvir = 75
max_cycle_macro = 50
max_cycle_micro = 4
conv_tol = 1e-07
conv_tol_grad = None
orbital rotation max_stepsize = 0.02
augmented hessian ah_max_cycle = 30
augmented hessian ah_conv_tol = 1e-12
augmented hessian ah_linear dependence = 1e-14
augmented hessian ah_level shift = 0
augmented hessian ah_start_tol = 2.5
augmented hessian ah_start_cycle = 3
augmented hessian ah_grad_trust_region = 3
kf_trust_region = 3
kf_interval = 4
ci_response_space = 4
ci_grad_trust_region = 3
with_dep4 0
natorb = False
canonicalization = True
sorting_mo_energy = False
chkfile = ./scratch/77037/tmp6t8u04
max_memory 4000 MB (current use 185 MB)
internal_rotation = False

******** SHCI flags ********
executable             = /home/bamu3429/softwares/dice/Dice
mpiprefix              = srun -n20
scratchDirectory       = ./scratch/77037
integralFile           = ./FCIDUMP
configFile             = ./input.dat
outputFile             = ./output.dat
maxIter                = 6
sweep_iter             = []
sweep_epsilon          = []
nPTiter                = 0
Stochastic             = True
fullrestart            = False
restart                = False
num_thrds              = 12
memory                 = None

CASCI E = -15.0598641388867  S^2 = 0.7500000
Set conv_tol_grad to 0.000316228
macro iter 1 (14 JK  4 micro), CASSCF E = -15.0744520554271  dE = -0.014587917  S^2 = 0.7500000
               |grad[o]|=0.189  |grad[c]|= None  |ddm|=0.264
macro iter 2 (6 JK  2 micro), CASSCF E = -15.0744541895812  dE = -2.1341541e-06  S^2 = 0.7500000
               |grad[o]|=0.00262  |grad[c]|= None  |ddm|=0.00167
macro iter 3 (1 JK  1 micro), CASSCF E = -15.0744541895812  dE = 0  S^2 = 0.7500000
               |grad[o]|=5.45e-06  |grad[c]|= None  |ddm|=    0
1-step CASSCF converged in 3 macro (21 JK 7 micro) steps
CASSCF canonicalization
CASSCF energy = -15.0744541895812


--------------------------------------------------
                 ICMPSPT CALCULATION              
--------------------------------------------------

Perturbation type: MRLCC
With fully internally contracted scheme
With third order correction

Preparing necessary RDMs
......production of RDMs took       1.87 sec
Reading binary 4RDM from DICE
......reading the RDM took          0.01 sec

(GOOD) Trace 4RDM:      0.0 =    3*    2*    1*    0
(BAD)  Trace 3RDM:      nan!=    3*    2*    1
(BAD)  Trace 2RDM:      nan!=    3*    2
(BAD)  Trace 1RDM:      nan!=    3

Producing the integrals
......production of INT took       8.14 sec

Energy_core =   -8.91168510
Energy      =           nan

WARNING: Have to use natural orbitals from CAASCF
         offdiagonal elements:    0.46343881

Basic ingredients written to int/
......savings of INGREDIENTS took       3.70 sec

Second-order:
