 &FCI NORB=6 ,NELEC=4 ,MS2=4,
  ORBSYM=1,1,1,1,1,1,
  ISYM=1,
 &END
  6.900001046513e-01    1  1  1  1
  2.614133901363e-02    2  1  2  1
  6.304483697574e-01    2  2  1  1
  6.752585094807e-01    2  2  2  2
  2.696503262724e-10    3  1  2  1
  2.614133947901e-02    3  1  3  1
  5.784429756273e-09    3  2  1  1
  2.099928214778e-04    3  2  2  2
  2.587914714520e-02    3  2  3  2
  6.304483758043e-01    3  3  1  1
  6.239792993926e-01    3  3  2  2
 -2.099802877060e-04    3  3  3  2
  6.752585231426e-01    3  3  3  3
 -3.789577145998e-09    4  1  1  1
 -6.540544293799e-03    4  1  2  2
 -1.126013853382e-02    4  1  3  2
  6.540537295210e-03    4  1  3  3
  2.867108360497e-02    4  1  4  1
  3.675332015867e-03    4  2  2  1
  6.327419143183e-03    4  2  3  1
  1.859887150609e-02    4  2  4  2
  6.327420803291e-03    4  3  2  1
 -3.675332226989e-03    4  3  3  1
  7.405156388590e-10    4  3  4  2
  1.859887363136e-02    4  3  4  3
  6.178799099084e-01    4  4  1  1
  6.365691474981e-01    4  4  2  2
  4.982563212275e-09    4  4  3  2
  6.365691506656e-01    4  4  3  3
 -3.715333517973e-09    4  4  4  1
  6.707041243481e-01    4  4  4  4
  1.919705522899e-08    5  1  1  1
  1.798054402419e-03    5  1  2  2
  3.095484477765e-03    5  1  3  2
 -1.798019632507e-03    5  1  3  3
 -4.412323487895e-03    5  1  4  1
  1.696803667691e-08    5  1  4  4
  6.890671463311e-03    5  1  5  1
  1.237684892928e-03    5  2  2  1
  2.130802092266e-03    5  2  3  1
  1.111105915450e-03    5  2  4  2
 -4.964431328826e-09    5  2  4  3
  6.501280827028e-03    5  2  5  2
  2.130768246387e-03    5  3  2  1
 -1.237682937706e-03    5  3  3  1
 -5.128097852923e-09    5  3  4  2
  1.111087349253e-03    5  3  4  3
 -5.527903801091e-09    5  3  5  2
  6.501266349391e-03    5  3  5  3
 -2.224394968466e-02    5  4  1  1
 -1.834531389979e-02    5  4  2  2
  8.562338047115e-09    5  4  3  2
 -1.834528205829e-02    5  4  3  3
  1.140888091289e-09    5  4  4  1
 -1.763244097471e-02    5  4  4  4
  2.399163893992e-10    5  4  5  1
  7.269355109262e-03    5  4  5  4
  2.814622536263e-01    5  5  1  1
  2.800023571116e-01    5  5  2  2
 -7.971127138017e-09    5  5  3  2
  2.800023368361e-01    5  5  3  3
  1.845462967547e-09    5  5  4  1
  2.792471930725e-01    5  5  4  4
 -1.985969841432e-09    5  5  5  1
 -4.333877535845e-03    5  5  5  4
  2.193391529193e-01    5  5  5  5
 -4.486370908390e-06    6  1  1  1
 -1.250670230825e-07    6  1  2  1
 -3.966808972094e-06    6  1  2  2
 -2.021494648444e-07    6  1  3  1
 -1.140649409249e-08    6  1  3  2
 -4.005898184853e-06    6  1  3  3
 -1.288409788249e-10    6  1  4  1
 -5.245090323957e-08    6  1  4  2
 -1.425306214580e-09    6  1  4  3
 -3.895345762925e-06    6  1  4  4
 -5.668715448954e-10    6  1  5  1
  1.267370793481e-07    6  1  5  2
  3.287513996059e-09    6  1  5  3
  7.236834247806e-08    6  1  5  4
 -2.973423421876e-07    6  1  5  5
  4.818979442189e-03    6  1  6  1
 -2.301806872715e-06    6  2  1  1
 -1.901274812761e-07    6  2  2  1
 -2.470832975610e-06    6  2  2  2
 -2.346856783176e-07    6  2  3  1
 -1.923506258714e-07    6  2  3  2
 -2.234676108669e-06    6  2  3  3
  1.232730369966e-07    6  2  4  1
 -1.423934931450e-07    6  2  4  2
  3.259604789073e-08    6  2  4  3
 -2.275681184293e-06    6  2  4  4
  1.180137215618e-07    6  2  5  1
  7.466566943378e-08    6  2  5  2
  9.705894657871e-08    6  2  5  3
  1.575196064774e-07    6  2  5  4
 -1.847589092108e-07    6  2  5  5
  3.678623553608e-11    6  2  6  1
  1.889563962270e-03    6  2  6  2
 -3.723437422308e-06    6  3  1  1
  2.285239550343e-07    6  3  2  1
 -3.641324441511e-06    6  3  2  2
 -1.997247655279e-07    6  3  3  1
 -1.027076817081e-07    6  3  3  2
 -3.969664781300e-06    6  3  3  3
  3.424513711537e-09    6  3  4  1
  3.237066411840e-08    6  3  4  2
  1.417422533219e-07    6  3  4  3
 -3.680981354910e-06    6  3  4  4
  3.100490397158e-09    6  3  5  1
  9.115594893533e-08    6  3  5  2
 -7.525123277547e-08    6  3  5  3
  2.549253759030e-07    6  3  5  4
 -2.985326372903e-07    6  3  5  5
  5.479911825116e-11    6  3  6  1
  1.790220109900e-03    6  3  6  2
  3.740176868961e-03    6  3  6  3
 -5.092580068625e-09    6  4  1  1
 -3.383766805664e-08    6  4  2  1
  2.745965634907e-07    6  4  2  2
 -9.270317682115e-10    6  4  3  1
 -4.175105105567e-08    6  4  3  2
 -2.856895491814e-07    6  4  3  3
 -2.332743938993e-07    6  4  4  1
 -6.728815134314e-08    6  4  4  2
 -1.086307120802e-07    6  4  4  3
 -6.032361186557e-09    6  4  4  4
 -1.047747307306e-07    6  4  5  1
  5.427613530752e-08    6  4  5  2
  8.792057192432e-08    6  4  5  3
  1.033788388348e-10    6  4  5  4
 -5.409190115173e-10    6  4  5  5
 -1.072024202566e-03    6  4  6  1
  1.101675387822e-12    6  4  6  3
  1.831767944599e-03    6  4  6  4
 -5.678087776479e-09    6  5  1  1
  2.437608431402e-07    6  5  2  1
  1.514480892703e-07    6  5  2  2
  6.535275374475e-09    6  5  3  1
  1.727798552528e-07    6  5  3  2
 -1.615099674445e-07    6  5  3  3
 -2.364369663084e-07    6  5  4  1
  8.857379756935e-08    6  5  4  2
  1.433103556366e-07    6  5  4  3
 -4.766698329509e-09    6  5  4  4
  2.216177655655e-07    6  5  5  1
  1.031774396526e-07    6  5  5  2
  1.664562834718e-07    6  5  5  3
  4.456476689063e-10    6  5  5  4
 -2.271093703109e-09    6  5  5  5
  4.460908477866e-03    6  5  6  1
 -1.242065456909e-11    6  5  6  2
  8.260625545621e-12    6  5  6  3
 -3.261261022098e-03    6  5  6  4
  3.489222717239e-02    6  5  6  5
  2.112161395143e-01    6  6  1  1
  3.308980908025e-12    6  6  2  1
  2.060052129443e-01    6  6  2  2
  1.743378393527e-11    6  6  3  1
  2.831511706215e-03    6  6  3  2
  2.089691230024e-01    6  6  3  3
 -1.803707802012e-03    6  6  4  1
  5.003649143470e-12    6  6  4  2
 -3.837461636456e-12    6  6  4  3
  2.057770690983e-01    6  6  4  4
  2.446785274415e-03    6  6  5  1
 -2.203304250367e-12    6  6  5  2
  4.311881263490e-12    6  6  5  3
 -4.293632456895e-03    6  6  5  4
  1.768444704784e-01    6  6  5  5
  6.750149165286e-08    6  6  6  1
  2.545637927259e-08    6  6  6  2
  3.858227409738e-08    6  6  6  3
 -1.328478027062e-07    6  6  6  4
  5.553093135402e-07    6  6  6  5
  1.635352348010e-01    6  6  6  6
 -2.415598280250e+00    1  1  0  0
 -2.398943657282e+00    2  2  0  0
 -1.147948023868e-08    3  2  0  0
 -2.398943671179e+00    3  3  0  0
  6.570868868416e-09    4  1  0  0
 -2.389951283694e+00    4  4  0  0
 -3.685989243256e-08    5  1  0  0
  1.589107731917e-12    5  2  0  0
 -2.360522250810e-12    5  3  0  0
  6.086107551047e-02    5  4  0  0
 -1.298933562003e+00    5  5  0  0
  1.125823151243e-05    6  1  0  0
  6.518108629340e-06    6  2  0  0
  1.054419721337e-05    6  3  0  0
  1.566756877521e-08    6  4  0  0
  2.046065315740e-08    6  5  0  0
 -9.137082877769e-01    6  6  0  0
    -64.505666163290   0  0  0  0
