#INFO: **** input file is /projects/bamu3429/BENCHMARK/fresh_atoms/MRPT/vtz/atoms/V_1/mrpt.py ****
import json
from pyscf import gto,scf,mcscf, fci, lo, ci, cc
from pyscf.scf import ROHF, UHF,ROKS
import numpy as np
import pandas as pd

# THIS IS WERE IT STARTS ====================================

df=json.load(open("../../../trail.json"))

spins={'Sc':1, 'Ti':2, 'V':3, 'Cr':6, 'Mn':5, 'Fe':4, 'Cu':1}

nd={'Sc':(1,0), 'Ti':(2,0), 'V':(3,0), 'Cr':(5,0), 'Mn':(5,0), 'Fe':(5,1), 'Cu':(5,5)}

cas={'Sc':3, 'Ti':4, 'V':5, 'Cr':6, 'Mn':7, 'Fe':8, 'Cu':11}

datacsv={}
for nm in ['atom','charge','method','basis','pseudopotential','hf',
           'totalenergy','totalenergy-stocherr','totalenergy-syserr']:
  datacsv[nm]=[]

basis='vtz'
el='V'
charge=1

mol=gto.Mole()
mol.ecp={}
mol.basis={}
mol.ecp[el]=gto.basis.parse_ecp(df[el]['ecp'])
mol.basis[el]=gto.basis.parse(df[el][basis])
mol.charge=charge
if el == 'Cr' or el == 'Cu':
  mol.spin=spins[el]-charge
else:
  mol.spin=spins[el]+charge
mol.build(atom="%s 0. 0. 0."%el,verbose=4)

m=ROHF(mol)
m.level_shift=1000.0
dm=m.from_chk("../../../../HF/atoms/"+el+basis+str(charge)+".chk")
hf=m.kernel(dm)
m.analyze()

from pyscf.shciscf import shci
mc = shci.SHCISCF(m, 6, cas[el]-charge)
#mc.fcisolver.conv_tol = 1e-14
mc.fcisolver.mpiprefix="mpirun -np 28"
mc.fcisolver.num_thrds=12
mc.verbose = 4
cas=mc.kernel()[0]
 
from pyscf.icmpspt import icmpspt
pt=icmpspt.icmpspt(mc,rdmM=500, PTM=1000,\
                          pttype="MRLCC",\
                          third_order=True,\
                          fully_ic=True,\
                          do_dm4=True)

datacsv['atom'].append(el)
datacsv['charge'].append(charge)
datacsv['method'].append('MRPT')
datacsv['basis'].append(basis)
datacsv['pseudopotential'].append('trail')
datacsv['hf'].append(hf)
datacsv['totalenergy'].append(cas+pt)
datacsv['totalenergy-stocherr'].append(0.0)
datacsv['totalenergy-syserr'].append(0.0)
pd.DataFrame(datacsv).to_csv(el+".csv",index=False)

#INFO: ******************** input file end ********************


System: ('Linux', 'bnode0304.rc.int.colorado.edu', '3.10.0-514.41.1.el7.x86_64', '#1 SMP Wed Jan 17 10:26:16 EST 2018', 'x86_64', 'x86_64')  Threads 28
Python 2.7.11 (default, Mar 22 2016, 01:42:54) 
[GCC Intel(R) C++ gcc 4.8 mode]
numpy 1.11.1  scipy 0.17.1
Date: Thu Mar 29 15:17:01 2018
PySCF version 1.4
PySCF path  /projects/bamu3429/softwares/pyscf_uptodate/pyscf
GIT ORIG_HEAD e2292e6edec2b0e0024c21b81de03db1d7bd4121
GIT HEAD      ref: refs/heads/master
GIT master branch  f3591ef22170896a4cdc2aadaa6f5da388ffcadb

[INPUT] VERBOSE 4
[INPUT] num atoms = 1
[INPUT] num electrons = 12
[INPUT] charge = 1
[INPUT] spin (= nelec alpha-beta = 2S) = 4
[INPUT] symmetry False subgroup None
[INPUT]  1 V      0.000000000000   0.000000000000   0.000000000000 AA    0.000000000000   0.000000000000   0.000000000000 Bohr
[INPUT] ---------------- BASIS SET ---------------- 
[INPUT] l, kappa, [nprim/nctr], expnt,             c_1 c_2 ...
[INPUT] V
[INPUT] 0    0    [12   /1   ]  33.51168105       0.006845
                                15.38532624       -0.214557
                                9.96227367        1.392425
                                8.05943355        -1.485929
                                3.6960334         -0.026725
                                1.49220279        0.457681
                                0.84622253        0.506886
                                0.43855031        0.249453
                                0.2102388         0.007109
                                0.1022422         0.007055
                                0.04832462        -0.000443
                                0.02406855        0.001278
[INPUT] 0    0    [12   /1   ]  33.51168105       -0.001211
                                15.38532624       0.04697
                                9.96227367        -0.329808
                                8.05943355        0.363635
                                3.6960334         0.005985
                                1.49220279        -0.140857
                                0.84622253        -0.203846
                                0.43855031        -0.200776
                                0.2102388         0.022081
                                0.1022422         0.429765
                                0.04832462        0.534383
                                0.02406855        0.187984
[INPUT] 0    0    [12   /1   ]  33.51168105       -0.007111
                                15.38532624       0.233807
                                9.96227367        -1.69649
                                8.05943355        1.967562
                                3.6960334         -0.221986
                                1.49220279        -1.566848
                                0.84622253        0.314532
                                0.43855031        0.552762
                                0.2102388         0.87483
                                0.1022422         0.073061
                                0.04832462        -0.50294
                                0.02406855        -0.328304
[INPUT] 0    0    [12   /1   ]  33.51168105       -0.013861
                                15.38532624       0.372746
                                9.96227367        -2.690047
                                8.05943355        3.225629
                                3.6960334         -0.892796
                                1.49220279        -2.437526
                                0.84622253        2.347767
                                0.43855031        1.223514
                                0.2102388         -1.131537
                                0.1022422         -1.231287
                                0.04832462        0.586808
                                0.02406855        0.648032
[INPUT] 0    0    [1    /1   ]  0.02406855           1
[INPUT] 0    0    [1    /1   ]  0.01198757           1
[INPUT] 1    0    [12   /1   ]  49.83779697       0.000413
                                25.60370921       -0.003442
                                10.40982442       0.097153
                                7.71483683        -0.206888
                                4.49868206        0.083281
                                2.48212838        0.186621
                                1.4387019         0.395144
                                0.72090362        0.377883
                                0.3443302         0.134629
                                0.13162828        0.011074
                                0.05284968        -0.000426
                                0.02121951        0.000256
[INPUT] 1    0    [12   /1   ]  49.83779697       -2.9e-05
                                25.60370921       0.000502
                                10.40982442       -0.020934
                                7.71483683        0.047431
                                4.49868206        -0.020701
                                2.48212838        -0.057583
                                1.4387019         -0.106451
                                0.72090362        -0.140229
                                0.3443302         0.043257
                                0.13162828        0.438687
                                0.05284968        0.536785
                                0.02121951        0.12546
[INPUT] 1    0    [12   /1   ]  49.83779697       4.2e-05
                                25.60370921       -0.00212
                                10.40982442       0.123342
                                7.71483683        -0.318471
                                4.49868206        0.188642
                                2.48212838        0.726079
                                1.4387019         0.273545
                                0.72090362        -0.906715
                                0.3443302         -0.478781
                                0.13162828        0.723888
                                0.05284968        0.310191
                                0.02121951        -0.00813
[INPUT] 1    0    [12   /1   ]  49.83779697       0.000299
                                25.60370921       0.000309
                                10.40982442       -0.131422
                                7.71483683        0.419354
                                4.49868206        -0.585162
                                2.48212838        -0.699409
                                1.4387019         0.95299
                                0.72090362        0.532068
                                0.3443302         -0.999183
                                0.13162828        0.152364
                                0.05284968        0.334676
                                0.02121951        -0.023213
[INPUT] 1    0    [1    /1   ]  0.02121951           1
[INPUT] 1    0    [1    /1   ]  0.00851977           1
[INPUT] 2    0    [10   /1   ]  34.27504048       0.000678
                                16.12418185       -0.017858
                                9.59474528        0.107867
                                3.8690861         0.173949
                                1.82728072        0.26883
                                0.85799457        0.321303
                                0.38035078        0.300128
                                0.15533087        0.170792
                                0.06318167        0.035148
                                0.03734397        0.003549
[INPUT] 2    0    [10   /1   ]  34.27504048       0.000584
                                16.12418185       0.010634
                                9.59474528        -0.094271
                                3.8690861         -0.228668
                                1.82728072        -0.397823
                                0.85799457        -0.076182
                                0.38035078        0.313255
                                0.15533087        0.472762
                                0.06318167        0.196314
                                0.03734397        0.015996
[INPUT] 2    0    [10   /1   ]  34.27504048       0.003588
                                16.12418185       -0.007285
                                9.59474528        -0.060176
                                3.8690861         -0.418946
                                1.82728072        -0.38644
                                0.85799457        0.691971
                                0.38035078        0.444732
                                0.15533087        -0.454572
                                0.06318167        -0.39879
                                0.03734397        -0.019185
[INPUT] 2    0    [1    /1   ]  0.03734397           1
[INPUT] 2    0    [1    /1   ]  0.02207241           1
[INPUT] 3    0    [1    /1   ]  2.578583             1
[INPUT] 3    0    [1    /1   ]  0.725076             1
[INPUT] 3    0    [1    /1   ]  0.2038853            1
[INPUT] 4    0    [1    /1   ]  2.326339             1
[INPUT] 4    0    [1    /1   ]  0.65414707           1
nuclear repulsion = 0
number of shells = 22
number of NR pGTOs = 399
number of NR cGTOs = 88
basis = {'V': [[0, [33.51168105, 0.006845], [15.38532624, -0.214557], [9.96227367, 1.392425], [8.05943355, -1.485929], [3.6960334, -0.026725], [1.49220279, 0.457681], [0.84622253, 0.506886], [0.43855031, 0.249453], [0.2102388, 0.007109], [0.1022422, 0.007055], [0.04832462, -0.000443], [0.02406855, 0.001278]], [0, [33.51168105, -0.001211], [15.38532624, 0.04697], [9.96227367, -0.329808], [8.05943355, 0.363635], [3.6960334, 0.005985], [1.49220279, -0.140857], [0.84622253, -0.203846], [0.43855031, -0.200776], [0.2102388, 0.022081], [0.1022422, 0.429765], [0.04832462, 0.534383], [0.02406855, 0.187984]], [0, [33.51168105, -0.007111], [15.38532624, 0.233807], [9.96227367, -1.69649], [8.05943355, 1.967562], [3.6960334, -0.221986], [1.49220279, -1.566848], [0.84622253, 0.314532], [0.43855031, 0.552762], [0.2102388, 0.87483], [0.1022422, 0.073061], [0.04832462, -0.50294], [0.02406855, -0.328304]], [0, [33.51168105, -0.013861], [15.38532624, 0.372746], [9.96227367, -2.690047], [8.05943355, 3.225629], [3.6960334, -0.892796], [1.49220279, -2.437526], [0.84622253, 2.347767], [0.43855031, 1.223514], [0.2102388, -1.131537], [0.1022422, -1.231287], [0.04832462, 0.586808], [0.02406855, 0.648032]], [0, [0.02406855, 1.0]], [0, [0.01198757, 1.0]], [1, [49.83779697, 0.000413], [25.60370921, -0.003442], [10.40982442, 0.097153], [7.71483683, -0.206888], [4.49868206, 0.083281], [2.48212838, 0.186621], [1.4387019, 0.395144], [0.72090362, 0.377883], [0.3443302, 0.134629], [0.13162828, 0.011074], [0.05284968, -0.000426], [0.02121951, 0.000256]], [1, [49.83779697, -2.9e-05], [25.60370921, 0.000502], [10.40982442, -0.020934], [7.71483683, 0.047431], [4.49868206, -0.020701], [2.48212838, -0.057583], [1.4387019, -0.106451], [0.72090362, -0.140229], [0.3443302, 0.043257], [0.13162828, 0.438687], [0.05284968, 0.536785], [0.02121951, 0.12546]], [1, [49.83779697, 4.2e-05], [25.60370921, -0.00212], [10.40982442, 0.123342], [7.71483683, -0.318471], [4.49868206, 0.188642], [2.48212838, 0.726079], [1.4387019, 0.273545], [0.72090362, -0.906715], [0.3443302, -0.478781], [0.13162828, 0.723888], [0.05284968, 0.310191], [0.02121951, -0.00813]], [1, [49.83779697, 0.000299], [25.60370921, 0.000309], [10.40982442, -0.131422], [7.71483683, 0.419354], [4.49868206, -0.585162], [2.48212838, -0.699409], [1.4387019, 0.95299], [0.72090362, 0.532068], [0.3443302, -0.999183], [0.13162828, 0.152364], [0.05284968, 0.334676], [0.02121951, -0.023213]], [1, [0.02121951, 1.0]], [1, [0.00851977, 1.0]], [2, [34.27504048, 0.000678], [16.12418185, -0.017858], [9.59474528, 0.107867], [3.8690861, 0.173949], [1.82728072, 0.26883], [0.85799457, 0.321303], [0.38035078, 0.300128], [0.15533087, 0.170792], [0.06318167, 0.035148], [0.03734397, 0.003549]], [2, [34.27504048, 0.000584], [16.12418185, 0.010634], [9.59474528, -0.094271], [3.8690861, -0.228668], [1.82728072, -0.397823], [0.85799457, -0.076182], [0.38035078, 0.313255], [0.15533087, 0.472762], [0.06318167, 0.196314], [0.03734397, 0.015996]], [2, [34.27504048, 0.003588], [16.12418185, -0.007285], [9.59474528, -0.060176], [3.8690861, -0.418946], [1.82728072, -0.38644], [0.85799457, 0.691971], [0.38035078, 0.444732], [0.15533087, -0.454572], [0.06318167, -0.39879], [0.03734397, -0.019185]], [2, [0.03734397, 1.0]], [2, [0.02207241, 1.0]], [3, [2.578583, 1.0]], [3, [0.725076, 1.0]], [3, [0.2038853, 1.0]], [4, [2.326339, 1.0]], [4, [0.65414707, 1.0]]]}
ecp = {'V': [10, [[-1, [[], [[8.85341849, 13.0]], [[14.12393489, 1867.96836466], [10.01469125, -417.2185296], [16.87739786, -6735.41034163], [17.42661229, 5248.9519915]], [[8.14766139, 115.09444037]]]], [0, [[], [], [[10.17161428, 8429.89768085], [6.62108601, -4738.0869454], [6.4407206, 3874.69004628], [11.26222343, -9817.80452096], [19.82459033, -286.16022228], [14.35299938, 2571.80634504]], []]], [1, [[], [], [[10.25117807, 40641.17869487], [10.49106006, -41559.00487832], [13.7869188, 3357.33248976], [16.29479305, -896.47755921], [7.79003518, -1904.45864373], [6.62830213, 382.3757783]], []]], [2, [[], [], [[8.601477, 4615.05527413], [10.66674565, -3671.60281242], [15.19026557, 4480.50015686], [8.06189603, -2591.12632756], [19.82232597, 2587.18683714], [18.22318105, -5431.92186158]], []]]]]}
CPU time:         3.64


******** <class 'pyscf.scf.rohf.ROHF'> flags ********
method = ROHF
initial guess = minao
damping factor = 0
level shift factor = 1000.0
DIIS = <class 'pyscf.scf.diis.CDIIS'>
DIIS start cycle = 1
DIIS space = 8
SCF tol = 1e-09
SCF gradient tol = None
max. SCF cycles = 50
direct_scf = True
direct_scf_tol = 1e-13
chkfile to save SCF result = /projects/bamu3429/BENCHMARK/fresh_atoms/MRPT/vtz/atoms/V_1/tmpTQsJeh
max_memory 4000 MB (current use 168 MB)
num. doubly occ = 4  num. singly occ = 4
Set gradient conv threshold to 3.16228e-05
init E= -70.4801055955408
  HOMO = 499.80491154152  LUMO = 999.807995351763
cycle= 1 E= -70.4774198314931  delta_E= 0.00269  |g|= 0.00579  |ddm|= 0.0354
  HOMO = 499.804980525341  LUMO = 999.808056329422
cycle= 2 E= -70.4774199311986  delta_E= -9.97e-08  |g|= 0.00575  |ddm|= 1.39e-05
  HOMO = 499.804759090505  LUMO = 999.80803787473
cycle= 3 E= -70.4774200325367  delta_E= -1.01e-07  |g|= 0.0057  |ddm|= 1.42e-05
  HOMO = 499.804741397098  LUMO = 999.808036710215
cycle= 4 E= -70.4774201316411  delta_E= -9.91e-08  |g|= 0.00565  |ddm|= 1.4e-05
  HOMO = 499.804640561656  LUMO = 999.808015682913
cycle= 5 E= -70.4774202325147  delta_E= -1.01e-07  |g|= 0.00561  |ddm|= 1.44e-05
  HOMO = 499.804612137595  LUMO = 999.808014850383
cycle= 6 E= -70.4774203315981  delta_E= -9.91e-08  |g|= 0.00556  |ddm|= 1.43e-05
  HOMO = 499.804542665469  LUMO = 999.80800985678
cycle= 7 E= -70.4774204279965  delta_E= -9.64e-08  |g|= 0.00552  |ddm|= 1.41e-05
  HOMO = 499.804616852501  LUMO = 999.808014716446
cycle= 8 E= -70.4774205237171  delta_E= -9.57e-08  |g|= 0.00547  |ddm|= 1.41e-05
  HOMO = 499.804593818222  LUMO = 999.808012126918
cycle= 9 E= -70.4774206175539  delta_E= -9.38e-08  |g|= 0.00543  |ddm|= 1.4e-05
  HOMO = 499.804589216328  LUMO = 999.808011075502
cycle= 10 E= -70.4774207096455  delta_E= -9.21e-08  |g|= 0.00538  |ddm|= 1.38e-05
  HOMO = 499.804535414434  LUMO = 999.8080062153
cycle= 11 E= -70.4774207997094  delta_E= -9.01e-08  |g|= 0.00534  |ddm|= 1.37e-05
  HOMO = 499.804591019995  LUMO = 999.808014434997
cycle= 12 E= -70.4774208885106  delta_E= -8.88e-08  |g|= 0.0053  |ddm|= 1.36e-05
  HOMO = 499.804504122331  LUMO = 999.808005736314
cycle= 13 E= -70.4774209752876  delta_E= -8.68e-08  |g|= 0.00526  |ddm|= 1.34e-05
  HOMO = 499.804520427689  LUMO = 999.808005174203
cycle= 14 E= -70.4774210610066  delta_E= -8.57e-08  |g|= 0.00522  |ddm|= 1.34e-05
  HOMO = 499.804507101953  LUMO = 999.808005635276
cycle= 15 E= -70.4774211450174  delta_E= -8.4e-08  |g|= 0.00518  |ddm|= 1.33e-05
  HOMO = 499.804501483961  LUMO = 999.80800577155
cycle= 16 E= -70.4774212275072  delta_E= -8.25e-08  |g|= 0.00515  |ddm|= 1.31e-05
  HOMO = 499.804514603032  LUMO = 999.808006655178
cycle= 17 E= -70.4774213082709  delta_E= -8.08e-08  |g|= 0.00511  |ddm|= 1.3e-05
  HOMO = 499.804505857326  LUMO = 999.808005181434
cycle= 18 E= -70.4774213873982  delta_E= -7.91e-08  |g|= 0.00507  |ddm|= 1.31e-05
  HOMO = 499.804489331889  LUMO = 999.80800389372
cycle= 19 E= -70.4774214651208  delta_E= -7.77e-08  |g|= 0.00504  |ddm|= 1.31e-05
  HOMO = 499.804671628834  LUMO = 999.808020865074
cycle= 20 E= -70.4774215426019  delta_E= -7.75e-08  |g|= 0.005  |ddm|= 1.27e-05
  HOMO = 499.804579462632  LUMO = 999.808012700178
cycle= 21 E= -70.477421618108  delta_E= -7.55e-08  |g|= 0.00497  |ddm|= 1.25e-05
  HOMO = 499.804572247288  LUMO = 999.808012185968
cycle= 22 E= -70.4774216925277  delta_E= -7.44e-08  |g|= 0.00494  |ddm|= 1.24e-05
  HOMO = 499.804563276606  LUMO = 999.808010231674
cycle= 23 E= -70.4774217660203  delta_E= -7.35e-08  |g|= 0.0049  |ddm|= 1.25e-05
  HOMO = 499.804571489645  LUMO = 999.808010762225
cycle= 24 E= -70.477421838675  delta_E= -7.27e-08  |g|= 0.00487  |ddm|= 1.23e-05
  HOMO = 499.804561300717  LUMO = 999.808009304266
cycle= 25 E= -70.4774219103193  delta_E= -7.16e-08  |g|= 0.00484  |ddm|= 1.24e-05
  HOMO = 499.804582879067  LUMO = 999.80801177572
cycle= 26 E= -70.4774219808788  delta_E= -7.06e-08  |g|= 0.00481  |ddm|= 1.23e-05
  HOMO = 499.804678437669  LUMO = 999.808021612076
cycle= 27 E= -70.4774220505145  delta_E= -6.96e-08  |g|= 0.00478  |ddm|= 1.2e-05
  HOMO = 499.804703081578  LUMO = 999.808023527684
cycle= 28 E= -70.477422119339  delta_E= -6.88e-08  |g|= 0.00475  |ddm|= 1.2e-05
  HOMO = 499.804553135882  LUMO = 999.808011083044
cycle= 29 E= -70.4774221865456  delta_E= -6.72e-08  |g|= 0.00472  |ddm|= 1.18e-05
  HOMO = 499.804564586306  LUMO = 999.808010237584
cycle= 30 E= -70.477422252311  delta_E= -6.58e-08  |g|= 0.00469  |ddm|= 1.22e-05
  HOMO = 499.804585736414  LUMO = 999.808010728156
cycle= 31 E= -70.4774223173739  delta_E= -6.51e-08  |g|= 0.00466  |ddm|= 1.2e-05
  HOMO = 499.804561055207  LUMO = 999.808007877492
cycle= 32 E= -70.4774223813868  delta_E= -6.4e-08  |g|= 0.00463  |ddm|= 1.24e-05
  HOMO = 499.8045278438  LUMO = 999.808005506241
cycle= 33 E= -70.477422444323  delta_E= -6.29e-08  |g|= 0.0046  |ddm|= 1.17e-05
  HOMO = 499.804553401527  LUMO = 999.808012729609
cycle= 34 E= -70.4774225054558  delta_E= -6.11e-08  |g|= 0.00458  |ddm|= 1.11e-05
  HOMO = 499.804650616936  LUMO = 999.808022020876
cycle= 35 E= -70.4774225656716  delta_E= -6.02e-08  |g|= 0.00455  |ddm|= 1.1e-05
  HOMO = 499.804666073524  LUMO = 999.808023024961
cycle= 36 E= -70.4774226251799  delta_E= -5.95e-08  |g|= 0.00452  |ddm|= 1.1e-05
  HOMO = 499.80445309254  LUMO = 999.808001538516
cycle= 37 E= -70.477422684518  delta_E= -5.93e-08  |g|= 0.0045  |ddm|= 1.11e-05
  HOMO = 499.804463428251  LUMO = 999.808001367273
cycle= 38 E= -70.4774227432956  delta_E= -5.88e-08  |g|= 0.00447  |ddm|= 1.11e-05
  HOMO = 499.804465103139  LUMO = 999.808001328048
cycle= 39 E= -70.4774228013797  delta_E= -5.81e-08  |g|= 0.00445  |ddm|= 1.12e-05
  HOMO = 499.804528334606  LUMO = 999.80800648868
cycle= 40 E= -70.4774228586124  delta_E= -5.72e-08  |g|= 0.00442  |ddm|= 1.09e-05
  HOMO = 499.804470856249  LUMO = 999.808002665423
cycle= 41 E= -70.4774229149705  delta_E= -5.64e-08  |g|= 0.0044  |ddm|= 1.09e-05
  HOMO = 499.804515573048  LUMO = 999.808004319789
cycle= 42 E= -70.4774229710024  delta_E= -5.6e-08  |g|= 0.00437  |ddm|= 1.09e-05
  HOMO = 499.804529623795  LUMO = 999.808005059727
cycle= 43 E= -70.477423026313  delta_E= -5.53e-08  |g|= 0.00435  |ddm|= 1.09e-05
  HOMO = 499.804530329708  LUMO = 999.80800561838
cycle= 44 E= -70.4774230810784  delta_E= -5.48e-08  |g|= 0.00433  |ddm|= 1.08e-05
  HOMO = 499.804516230993  LUMO = 999.808004142736
cycle= 45 E= -70.4774231350519  delta_E= -5.4e-08  |g|= 0.0043  |ddm|= 1.07e-05
  HOMO = 499.804512957797  LUMO = 999.808005047892
cycle= 46 E= -70.477423188038  delta_E= -5.3e-08  |g|= 0.00428  |ddm|= 1.05e-05
  HOMO = 499.804510505713  LUMO = 999.808004582769
cycle= 47 E= -70.4774232404633  delta_E= -5.24e-08  |g|= 0.00426  |ddm|= 1.05e-05
  HOMO = 499.804535285896  LUMO = 999.808005048264
cycle= 48 E= -70.4774232927661  delta_E= -5.23e-08  |g|= 0.00424  |ddm|= 1.07e-05
  HOMO = 499.804544678304  LUMO = 999.808005282547
cycle= 49 E= -70.4774233446782  delta_E= -5.19e-08  |g|= 0.00422  |ddm|= 1.05e-05
  HOMO = 499.804596491759  LUMO = 999.808009587097
cycle= 50 E= -70.4774233963932  delta_E= -5.17e-08  |g|= 0.00419  |ddm|= 1.08e-05
  HOMO = -0.19511560835472  LUMO = -0.191943621587927
Extra cycle  E= -70.4772237270775  delta_E= 0.0002  |g|= 0.00956  |ddm|= 0.0666
SCF not converged.
SCF energy = -70.4772237270775 after 50 cycles
**** MO energy ****
                Roothaan           | alpha              | beta
MO #1   energy= -3.28646087426408  | -3.42168201981013  | -3.15127786795909  occ= 2
MO #2   energy= -2.11963046800381  | -2.27035783282805  | -1.96890310317963  occ= 2
MO #3   energy= -2.1196304680035   | -2.2703578328281   | -1.96890310317895  occ= 2
MO #4   energy= -2.11186189599713  | -2.31375853654634  | -1.90996525544802  occ= 2
MO #5   energy= -0.230055307917085 | -0.61657674642094  | 0.155471334979218  occ= 1
MO #6   energy= -0.203762185586038 | -0.57695673003602  | 0.168981062986297  occ= 1
MO #7   energy= -0.203762185585954 | -0.576956730035243 | 0.168981062986027  occ= 1
MO #8   energy= -0.19511560835472  | -0.563326589406064 | 0.173258653293523  occ= 1
MO #9   energy= -0.191943621587927 | -0.206753171197829 | -0.177433315492011 occ= 0
MO #10  energy= -0.112451343918009 | -0.117313122352877 | -0.107589565483139 occ= 0
MO #11  energy= -0.112451343917988 | -0.117313122352849 | -0.10758956548312  occ= 0
MO #12  energy= -0.10885513741976  | -0.115159191813356 | -0.102551083026155 occ= 0
MO #13  energy= -0.0702207297798767 | -0.0726467689766934 | -0.0677966717523815 occ= 0
MO #14  energy= -0.0579332311757929 | -0.0618294595504568 | -0.0540370028011271 occ= 0
MO #15  energy= -0.0499764170675736 | -0.0514411486720649 | -0.0485116854630803 occ= 0
MO #16  energy= -0.049976417067555 | -0.0514411486720409 | -0.0485116854630679 occ= 0
MO #17  energy= -0.0489305243983927 | -0.0509277854255865 | -0.0469332633712002 occ= 0
MO #18  energy= -0.0472719578213974 | -0.0483925717957824 | -0.0460671201707518 occ= 0
MO #19  energy= -0.0461202989406195 | -0.0473090796757263 | -0.0449003928573174 occ= 0
MO #20  energy= -0.0461202989403732 | -0.0473090796757074 | -0.0449003928583106 occ= 0
MO #21  energy= -0.0457127141293055 | -0.0469338860640305 | -0.0444915994706503 occ= 0
MO #22  energy= -0.00769114270900013 | -0.019575028217089 | 0.00419274279909358 occ= 0
MO #23  energy= 0.0390214530163483 | 0.0340290116976624 | 0.0442506943591489 occ= 0
MO #24  energy= 0.0421447649176723 | 0.0366688318764164 | 0.0477098090850783 occ= 0
MO #25  energy= 0.0421447649182345 | 0.0366688318765384 | 0.0477098090840145 occ= 0
MO #26  energy= 0.0432851331196149 | 0.0375939901762339 | 0.0489811771573985 occ= 0
MO #27  energy= 0.0439462639103958 | 0.0343240345314958 | 0.0535684932892874 occ= 0
MO #28  energy= 0.0439462639104219 | 0.0343240345313194 | 0.053568493289526  occ= 0
MO #29  energy= 0.0493348507032439 | 0.0357791599878184 | 0.0628905414186693 occ= 0
MO #30  energy= 0.0819881035248996 | 0.0716152250722432 | 0.0923551693956294 occ= 0
MO #31  energy= 0.0965822350019186 | 0.0736947908203979 | 0.119469679183441  occ= 0
MO #32  energy= 0.532465814766187  | 0.520894906286223  | 0.544036723246264  occ= 0
MO #33  energy= 0.532465814766339  | 0.520894906286601  | 0.544036723246084  occ= 0
MO #34  energy= 0.535783267936225  | 0.516817712360068  | 0.554748823512516  occ= 0
MO #35  energy= 0.536959266678667  | 0.523541161066304  | 0.55037737229108   occ= 0
MO #36  energy= 0.539013411964753  | 0.521270843406476  | 0.556755980523182  occ= 0
MO #37  energy= 0.539013411964829  | 0.521270843406581  | 0.556755980523171  occ= 0
MO #38  energy= 0.539918321788488  | 0.521452734006142  | 0.558383909570965  occ= 0
MO #39  energy= 0.558972422051547  | 0.511565643552867  | 0.607011692159741  occ= 0
MO #40  energy= 0.574535183412437  | 0.526295178358012  | 0.623057181429565  occ= 0
MO #41  energy= 0.574535183412532  | 0.526295178358278  | 0.623057181430116  occ= 0
MO #42  energy= 0.579999828176096  | 0.53139200046068   | 0.628729656058979  occ= 0
MO #43  energy= 0.624541024729741  | 0.60154869890984   | 0.647533350549642  occ= 0
MO #44  energy= 0.799926978016126  | 0.775470176563587  | 0.824382782546852  occ= 0
MO #45  energy= 1.39964452969322   | 1.36057997920781   | 1.43870908017864   occ= 0
MO #46  energy= 1.3996445296933    | 1.36057997920786   | 1.43870908017874   occ= 0
MO #47  energy= 1.42250482320644   | 1.37128277963781   | 1.47372686677507   occ= 0
MO #48  energy= 2.32904891199502   | 2.27175382857946   | 2.38634399541058   occ= 0
MO #49  energy= 2.3290489119951    | 2.27175382857964   | 2.38634399541056   occ= 0
MO #50  energy= 2.33137431948838   | 2.24918662097263   | 2.41356201800413   occ= 0
MO #51  energy= 2.33958634659564   | 2.28200879349982   | 2.39716389969146   occ= 0
MO #52  energy= 2.34145737076571   | 2.27165019217766   | 2.41126454935376   occ= 0
MO #53  energy= 2.34145737076575   | 2.27165019217773   | 2.41126454935376   occ= 0
MO #54  energy= 2.34268616135527   | 2.26517261515191   | 2.42019970755864   occ= 0
MO #55  energy= 2.79003048762957   | 2.76844677241992   | 2.8116271164127    occ= 0
MO #56  energy= 2.79023352803812   | 2.76797637870215   | 2.8124906773741    occ= 0
MO #57  energy= 2.80075802281433   | 2.7738178637018    | 2.8277039964208    occ= 0
MO #58  energy= 2.80075802281434   | 2.7738178637018    | 2.82770399642081   occ= 0
MO #59  energy= 2.80581027853429   | 2.77896111285133   | 2.83265944421726   occ= 0
MO #60  energy= 2.80972058608425   | 2.77475680761467   | 2.84468517395554   occ= 0
MO #61  energy= 2.81173981434729   | 2.77837561733343   | 2.8451065125522    occ= 0
MO #62  energy= 2.81173981434731   | 2.77837561733347   | 2.84510651255222   occ= 0
MO #63  energy= 2.8127876191751    | 2.77968576699275   | 2.84589183806324   occ= 0
MO #64  energy= 2.8860472335035    | 2.80741591256297   | 2.96471897836547   occ= 0
MO #65  energy= 2.90784685360198   | 2.83210534487168   | 2.9836269959169    occ= 0
MO #66  energy= 2.90784685360254   | 2.83210534487239   | 2.98362699591692   occ= 0
MO #67  energy= 2.91501973127191   | 2.84037866932977   | 2.98969709177274   occ= 0
MO #68  energy= 2.91709748317286   | 2.89044686494995   | 2.94374810139578   occ= 0
MO #69  energy= 4.10125112489319   | 4.05825075177126   | 4.14425144314599   occ= 0
MO #70  energy= 5.98665211883686   | 5.94616888660737   | 6.02713535106631   occ= 0
MO #71  energy= 5.98665211883696   | 5.94616888660739   | 6.02713535106651   occ= 0
MO #72  energy= 6.01661178935536   | 5.96443738937885   | 6.06878618933184   occ= 0
MO #73  energy= 7.74047229983193   | 7.67885561907228   | 7.80208898059158   occ= 0
MO #74  energy= 7.740472299832     | 7.67885561907246   | 7.80208898059154   occ= 0
MO #75  energy= 7.75127539150778   | 7.65758888002045   | 7.84496190299509   occ= 0
MO #76  energy= 7.75529566308221   | 7.6890867514345    | 7.82150457472994   occ= 0
MO #77  energy= 7.76189903127455   | 7.67717865271586   | 7.84661940983323   occ= 0
MO #78  energy= 7.76189903127465   | 7.67717865271613   | 7.84661940983315   occ= 0
MO #79  energy= 7.76479415892628   | 7.67723738928176   | 7.8523509285708    occ= 0
MO #80  energy= 10.2244946490612   | 10.1835802105494   | 10.2654133595207   occ= 0
MO #81  energy= 10.2247859877366   | 10.1829913211224   | 10.2665806543507   occ= 0
MO #82  energy= 10.2418292822682   | 10.1920421602222   | 10.2916182492582   occ= 0
MO #83  energy= 10.2418292822682   | 10.1920421602222   | 10.2916182492582   occ= 0
MO #84  energy= 10.2498376721329   | 10.2000924008128   | 10.299582943453    occ= 0
MO #85  energy= 10.2579395183872   | 10.1941340421328   | 10.321745041616    occ= 0
MO #86  energy= 10.2608663761286   | 10.2000364179323   | 10.3216966065531   occ= 0
MO #87  energy= 10.2608663761286   | 10.2000364179323   | 10.3216966065532   occ= 0
MO #88  energy= 10.2624482942145   | 10.2023893126055   | 10.3225075287523   occ= 0
 ** Mulliken pop on meta-lowdin orthogonal AOs  **
 ** Mulliken pop  **
pop of  0V 3s        1.99967
pop of  0V 4s        0.00392
pop of  0V 5s        0.00012
pop of  0V 6s        0.00001
pop of  0V 7s        0.00000
pop of  0V 8s        0.00001
pop of  0V 3px       1.99976
pop of  0V 3py       1.99976
pop of  0V 3pz       1.99972
pop of  0V 4px       0.00005
pop of  0V 4py       0.00005
pop of  0V 4pz       0.00014
pop of  0V 5px       0.00007
pop of  0V 5py       0.00007
pop of  0V 5pz       0.00008
pop of  0V 6px       0.00001
pop of  0V 6py       0.00001
pop of  0V 6pz       0.00002
pop of  0V 7px       0.00000
pop of  0V 7py       0.00000
pop of  0V 7pz       0.00000
pop of  0V 8px       0.00000
pop of  0V 8py       0.00000
pop of  0V 8pz       0.00000
pop of  0V 3dxy      0.99963
pop of  0V 3dyz      0.99921
pop of  0V 3dz^2     0.99514
pop of  0V 3dxz      0.99921
pop of  0V 3dx2-y2    0.00000
pop of  0V 4dxy      0.00005
pop of  0V 4dyz      0.00070
pop of  0V 4dz^2     0.00107
pop of  0V 4dxz      0.00070
pop of  0V 4dx2-y2    0.00000
pop of  0V 5dxy      0.00011
pop of  0V 5dyz      0.00002
pop of  0V 5dz^2     0.00001
pop of  0V 5dxz      0.00002
pop of  0V 5dx2-y2    0.00000
pop of  0V 6dxy      0.00020
pop of  0V 6dyz      0.00005
pop of  0V 6dz^2     0.00003
pop of  0V 6dxz      0.00005
pop of  0V 6dx2-y2    0.00000
pop of  0V 7dxy      0.00001
pop of  0V 7dyz      0.00000
pop of  0V 7dz^2     0.00000
pop of  0V 7dxz      0.00000
pop of  0V 7dx2-y2    0.00000
pop of  0V 4fy^3     0.00003
pop of  0V 4fxyz     0.00000
pop of  0V 4fyz^2    0.00001
pop of  0V 4fz^3     0.00002
pop of  0V 4fxz^2    0.00001
pop of  0V 4fzx^2    0.00000
pop of  0V 4fx^3     0.00003
pop of  0V 5fy^3     0.00007
pop of  0V 5fxyz     0.00000
pop of  0V 5fyz^2    0.00000
pop of  0V 5fz^3     0.00003
pop of  0V 5fxz^2    0.00000
pop of  0V 5fzx^2    0.00000
pop of  0V 5fx^3     0.00007
pop of  0V 6fy^3     0.00001
pop of  0V 6fxyz     0.00000
pop of  0V 6fyz^2    0.00000
pop of  0V 6fz^3     0.00000
pop of  0V 6fxz^2    0.00000
pop of  0V 6fzx^2    0.00000
pop of  0V 6fx^3     0.00001
pop of  0V 5g-4      0.00000
pop of  0V 5g-3      0.00000
pop of  0V 5g-2      0.00000
pop of  0V 5g-1      0.00000
pop of  0V 5g 0      0.00000
pop of  0V 5g 1      0.00000
pop of  0V 5g 2      0.00000
pop of  0V 5g 3      0.00000
pop of  0V 5g 4      0.00001
pop of  0V 6g-4      0.00000
pop of  0V 6g-3      0.00001
pop of  0V 6g-2      0.00000
pop of  0V 6g-1      0.00001
pop of  0V 6g 0      0.00001
pop of  0V 6g 1      0.00001
pop of  0V 6g 2      0.00000
pop of  0V 6g 3      0.00001
pop of  0V 6g 4      0.00002
 ** Mulliken atomic charges  **
charge of  0V =      1.00000

******** <class 'pyscf.mcscf.mc1step.CASSCF'> flags ********
CAS (4e+0e, 6o), ncore = 4, nvir = 78
max_cycle_macro = 50
max_cycle_micro = 4
conv_tol = 1e-07
conv_tol_grad = None
orbital rotation max_stepsize = 0.02
augmented hessian ah_max_cycle = 30
augmented hessian ah_conv_tol = 1e-12
augmented hessian ah_linear dependence = 1e-14
augmented hessian ah_level shift = 0
augmented hessian ah_start_tol = 2.5
augmented hessian ah_start_cycle = 3
augmented hessian ah_grad_trust_region = 3
kf_trust_region = 3
kf_interval = 4
ci_response_space = 4
ci_grad_trust_region = 3
with_dep4 0
natorb = False
canonicalization = True
chkfile = ./scratch/167467/tmpiG062j
max_memory 4000 MB (current use 283 MB)
internal_rotation = False

******** SHCI flags ********
executable             = /home/bamu3429/softwares/dice/Dice
mpiprefix              = mpirun -np 28
scratchDirectory       = ./scratch/167467
integralFile           = ./FCIDUMP
configFile             = ./input.dat
outputFile             = ./output.dat
maxIter                = 6
sweep_iter             = []
sweep_epsilon          = []
nPTiter                = 0
Stochastic             = True
fullrestart            = False
restart                = False
num_thrds              = 12
memory                 = None

CASCI E = -70.4774304568408  S^2 = 6.0000000
Set conv_tol_grad to 0.000316228
macro iter 1 (11 JK  3 micro), CASSCF E = -70.4774328221538  dE = -2.365313e-06  S^2 = 6.0000000
               |grad[o]|=0.00301  |grad[c]|= None  |ddm|=0.00302
macro iter 2 (3 JK  1 micro), CASSCF E = -70.4774328364424  dE = -1.4288574e-08  S^2 = 6.0000000
               |grad[o]|=6.16e-05  |grad[c]|= None  |ddm|=    0
1-step CASSCF converged in 2 macro (14 JK 4 micro) steps
CASSCF canonicalization
CASSCF energy = -70.4774328364424


--------------------------------------------------
                 ICMPSPT CALCULATION              
--------------------------------------------------

Perturbation type: MRLCC
With fully internally contracted scheme
With third order correction

Preparing necessary RDMs
......production of RDMs took       0.64 sec
Reading binary 4RDM from DICE
......reading the RDM took          1.05 sec

(GOOD) Trace 4RDM:     24.0 =    4*    3*    2*    1
(GOOD) Trace 3RDM:     24.0 =    4*    3*    2
(GOOD) Trace 2RDM:     12.0 =    4*    3
(GOOD) Trace 1RDM:      4.0 =    4

Producing the integrals
......production of INT took      89.95 sec

Energy_core =  -64.5056661633
Energy      =  -70.4774328364

WARNING: Have to use natural orbitals from CAASCF
         offdiagonal elements: 0.686293364956

Basic ingredients written to int/
......savings of INGREDIENTS took      17.79 sec

Second-order:
perturber CCVV --        -0.140074402
perturber CCAV --        -0.061606099
perturber ACVV --        -0.151369065
perturber CCAA --        -0.013722781
perturber AAVV --        -0.052765764
perturber CAAV --        -0.064724501
perturber AAAV --        -0.000237696
perturber AAAC --        -0.000017980
Total:                   -0.484518289

Third-order:             -0.000079559

Total PT       --        -0.484597848

