 &FCI NORB=6 ,NELEC=5 ,MS2=3,
  ORBSYM=1,1,1,1,1,1,
  ISYM=1,
 &END
  2.540801148950e-01    1  1  1  1
  6.856746540679e-07    2  1  1  1
  7.855934279356e-03    2  1  2  1
  3.222364276908e-01    2  2  1  1
  2.238295045006e-05    2  2  2  1
  7.377340187608e-01    2  2  2  2
  1.211834982224e-04    3  1  1  1
 -1.899055854155e-08    3  1  2  1
 -6.461999309204e-05    3  1  2  2
  7.782556540839e-03    3  1  3  1
  4.057794855001e-07    3  2  1  1
 -2.130692054209e-03    3  2  2  1
 -4.253058936859e-07    3  2  2  2
 -1.598291124558e-05    3  2  3  1
  2.912415049866e-02    3  2  3  2
  3.220292688289e-01    3  3  1  1
 -1.754443585361e-05    3  3  2  1
  6.800475845801e-01    3  3  2  2
  2.478054811085e-03    3  3  3  1
  5.366458809602e-06    3  3  3  2
  7.372419424556e-01    3  3  3  3
  2.362035924009e-04    4  1  1  1
  5.692753940499e-07    4  1  2  1
  3.349225569334e-03    4  1  2  2
 -9.111907651146e-05    4  1  3  1
  4.670600760579e-06    4  1  3  2
  3.371263130291e-03    4  1  3  3
  7.723298326082e-03    4  1  4  1
  1.220151049020e-06    4  2  1  1
  2.259778296502e-04    4  2  2  1
 -9.932889548333e-07    4  2  2  2
  5.187861668762e-06    4  2  3  1
 -6.261999265653e-05    4  2  3  2
 -6.508124808160e-08    4  2  3  3
 -7.909595399004e-06    4  2  4  1
  2.855187772595e-02    4  2  4  2
 -2.796782917712e-04    4  3  1  1
  5.671146943521e-06    4  3  2  1
  1.260235629816e-04    4  3  2  2
  2.476855423527e-04    4  3  3  1
  1.051766812333e-07    4  3  3  2
  3.017277349563e-06    4  3  3  3
  2.408882878975e-03    4  3  4  1
 -7.011196060738e-07    4  3  4  2
  2.902563087162e-02    4  3  4  3
  3.218427131670e-01    4  4  1  1
 -9.332451612416e-06    4  4  2  1
  6.796009962226e-01    4  4  2  2
  4.469547545925e-03    4  4  3  1
 -2.451968546721e-06    4  4  3  2
  6.802205475553e-01    4  4  3  3
  3.695179971123e-03    4  4  4  1
  1.531873672407e-06    4  4  4  2
 -2.926494161205e-05    4  4  4  3
  7.377741954453e-01    4  4  4  4
  5.881044580248e-02    5  1  5  1
  4.770882831075e-05    5  2  5  1
  9.985770640212e-03    5  2  5  2
 -1.619824518465e-02    5  3  5  1
  2.948354969223e-06    5  3  5  2
  9.902060898167e-03    5  3  5  3
  1.297809991711e-05    5  4  5  1
 -4.905238457010e-07    5  4  5  2
 -5.352173122021e-05    5  4  5  3
  1.684811631660e-03    5  4  5  4
  2.502684323628e-01    5  5  1  1
  2.572502614326e-05    5  5  2  1
  3.147360993624e-01    5  5  2  2
 -8.290228820299e-03    5  5  3  1
  5.433362756782e-06    5  5  3  2
  3.143009666078e-01    5  5  3  3
  6.479876855858e-04    5  5  4  1
 -1.329636344621e-06    5  5  4  2
 -1.046210787120e-04    5  5  4  3
  3.016228588805e-01    5  5  4  4
  2.676701012032e-01    5  5  5  5
 -1.266121092844e-06    6  1  5  1
  1.321680233590e-02    6  1  5  2
  2.357832562159e-05    6  1  5  3
  1.137851194757e-06    6  1  5  4
  5.878582103390e-02    6  1  6  1
  1.321735851777e-02    6  2  5  1
  2.349767010909e-05    6  2  5  2
 -5.352902110459e-03    6  2  5  3
 -9.371008218384e-04    6  2  5  4
 -1.517385779057e-05    6  2  6  1
  7.186197821497e-03    6  2  6  2
  2.201685769333e-05    6  3  5  1
 -1.476411229563e-03    6  3  5  2
 -2.225366733094e-05    6  3  5  3
  6.869788564266e-07    6  3  5  4
  5.158099604882e-03    6  3  6  1
 -5.878198828560e-07    6  3  6  2
  4.390031523871e-03    6  3  6  3
  1.181895669622e-06    6  4  5  1
 -3.709146562697e-03    6  4  5  2
 -6.469544907464e-07    6  4  5  3
 -1.163848455574e-06    6  4  5  4
 -1.534247318716e-02    6  4  6  1
  1.305941209796e-05    6  4  6  2
 -3.860320294058e-03    6  4  6  3
  1.001399982302e-02    6  4  6  4
 -7.811277498477e-07    6  5  1  1
  7.102320922830e-03    6  5  2  1
  3.782684783128e-05    6  5  2  2
  1.230003250174e-05    6  5  3  1
 -5.392141392537e-03    6  5  3  2
 -3.651002226360e-05    6  5  3  3
  7.212795619148e-07    6  5  4  1
 -3.481870413720e-03    6  5  4  2
  6.278462733478e-07    6  5  4  3
 -2.495719068890e-06    6  5  4  4
  5.469029177482e-07    6  5  5  5
  1.608350549369e-02    6  5  6  5
  2.502490575366e-01    6  6  1  1
 -8.493407129208e-06    6  6  2  1
  3.100956538289e-01    6  6  2  2
  3.184424684855e-03    6  6  3  1
 -1.184631604568e-06    6  6  3  2
  3.059860419679e-01    6  6  3  3
 -7.599238296002e-03    6  6  4  1
  2.090233757069e-05    6  6  4  2
 -6.103586943981e-03    6  6  4  3
  3.145365766348e-01    6  6  4  4
  2.355378135173e-01    6  6  5  5
 -1.139080758055e-06    6  6  6  5
  2.676440398621e-01    6  6  6  6
 -1.439263193676e+00    1  1  0  0
  1.843902390240e-06    2  1  0  0
 -2.439930498559e+00    2  2  0  0
 -5.271825030408e-03    3  1  0  0
 -3.055041300084e-06    3  2  0  0
 -2.439904964847e+00    3  3  0  0
 -8.097302322629e-03    4  1  0  0
 -7.817143241140e-07    4  2  0  0
  8.808003220211e-05    4  3  0  0
 -2.439859645502e+00    4  4  0  0
 -1.269266250974e+00    5  5  0  0
  1.510701718281e-06    6  5  0  0
 -1.269223204607e+00    6  6  0  0
    -64.614019258074   0  0  0  0
