#INFO: **** input file is /projects/bamu3429/BENCHMARK/fresh_atoms/MRPT/vtz/atoms/V_0/mrpt.py ****
import json
from pyscf import gto,scf,mcscf, fci, lo, ci, cc
from pyscf.scf import ROHF, UHF,ROKS
import numpy as np
import pandas as pd

# THIS IS WERE IT STARTS ====================================

df=json.load(open("../../../trail.json"))

spins={'Sc':1, 'Ti':2, 'V':3, 'Cr':6, 'Mn':5, 'Fe':4, 'Cu':1}

nd={'Sc':(1,0), 'Ti':(2,0), 'V':(3,0), 'Cr':(5,0), 'Mn':(5,0), 'Fe':(5,1), 'Cu':(5,5)}

cas={'Sc':3, 'Ti':4, 'V':5, 'Cr':6, 'Mn':7, 'Fe':8, 'Cu':11}

datacsv={}
for nm in ['atom','charge','method','basis','pseudopotential','hf',
           'totalenergy','totalenergy-stocherr','totalenergy-syserr']:
  datacsv[nm]=[]

basis='vtz'
el='V'
charge=0

mol=gto.Mole()
mol.ecp={}
mol.basis={}
mol.ecp[el]=gto.basis.parse_ecp(df[el]['ecp'])
mol.basis[el]=gto.basis.parse(df[el][basis])
mol.charge=charge
if el == 'Cr' or el == 'Cu':
  mol.spin=spins[el]-charge
else:
  mol.spin=spins[el]+charge
mol.build(atom="%s 0. 0. 0."%el,verbose=4)

m=ROHF(mol)
m.level_shift=1000.0
dm=m.from_chk("../../../../HF/atoms/"+el+basis+str(charge)+".chk")
hf=m.kernel(dm)
m.analyze()

from pyscf.shciscf import shci
mc = shci.SHCISCF(m, 6, cas[el]-charge)
#mc.fcisolver.conv_tol = 1e-14
mc.fcisolver.mpiprefix="srun -n20"
mc.fcisolver.num_thrds=12
mc.verbose = 4
cas=mc.kernel()[0]
 
from pyscf.icmpspt import icmpspt
pt=icmpspt.icmpspt(mc,rdmM=500, PTM=1000,\
                          pttype="MRLCC",\
                          third_order=True,\
                          fully_ic=True,\
                          do_dm4=True)

datacsv['atom'].append(el)
datacsv['charge'].append(charge)
datacsv['method'].append('MRPT')
datacsv['basis'].append(basis)
datacsv['pseudopotential'].append('trail')
datacsv['hf'].append(hf)
datacsv['totalenergy'].append(cas+pt)
datacsv['totalenergy-stocherr'].append(0.0)
datacsv['totalenergy-syserr'].append(0.0)
pd.DataFrame(datacsv).to_csv(el+".csv",index=False)

#INFO: ******************** input file end ********************


System: ('Linux', 'bnode0302.rc.int.colorado.edu', '3.10.0-514.41.1.el7.x86_64', '#1 SMP Wed Jan 17 10:26:16 EST 2018', 'x86_64', 'x86_64')  Threads 28
Python 2.7.11 (default, Mar 22 2016, 01:42:54) 
[GCC Intel(R) C++ gcc 4.8 mode]
numpy 1.11.1  scipy 0.17.1
Date: Wed Apr 18 15:52:21 2018
PySCF version 1.4.6
PySCF path  /projects/bamu3429/softwares/pyscf_uptodate/pyscf
GIT ORIG_HEAD f3591ef22170896a4cdc2aadaa6f5da388ffcadb
GIT HEAD      ref: refs/heads/master
GIT master branch  1847583fb1d2472321833d3c71c8b7008e5fabf5

[INPUT] VERBOSE 4
[INPUT] num atoms = 1
[INPUT] num electrons = 13
[INPUT] charge = 0
[INPUT] spin (= nelec alpha-beta = 2S) = 3
[INPUT] symmetry False subgroup None
[INPUT]  1 V      0.000000000000   0.000000000000   0.000000000000 AA    0.000000000000   0.000000000000   0.000000000000 Bohr
[INPUT] ---------------- BASIS SET ---------------- 
[INPUT] l, kappa, [nprim/nctr], expnt,             c_1 c_2 ...
[INPUT] V
[INPUT] 0    0    [12   /1   ]  33.51168105       0.006845
                                15.38532624       -0.214557
                                9.96227367        1.392425
                                8.05943355        -1.485929
                                3.6960334         -0.026725
                                1.49220279        0.457681
                                0.84622253        0.506886
                                0.43855031        0.249453
                                0.2102388         0.007109
                                0.1022422         0.007055
                                0.04832462        -0.000443
                                0.02406855        0.001278
[INPUT] 0    0    [12   /1   ]  33.51168105       -0.001211
                                15.38532624       0.04697
                                9.96227367        -0.329808
                                8.05943355        0.363635
                                3.6960334         0.005985
                                1.49220279        -0.140857
                                0.84622253        -0.203846
                                0.43855031        -0.200776
                                0.2102388         0.022081
                                0.1022422         0.429765
                                0.04832462        0.534383
                                0.02406855        0.187984
[INPUT] 0    0    [12   /1   ]  33.51168105       -0.007111
                                15.38532624       0.233807
                                9.96227367        -1.69649
                                8.05943355        1.967562
                                3.6960334         -0.221986
                                1.49220279        -1.566848
                                0.84622253        0.314532
                                0.43855031        0.552762
                                0.2102388         0.87483
                                0.1022422         0.073061
                                0.04832462        -0.50294
                                0.02406855        -0.328304
[INPUT] 0    0    [12   /1   ]  33.51168105       -0.013861
                                15.38532624       0.372746
                                9.96227367        -2.690047
                                8.05943355        3.225629
                                3.6960334         -0.892796
                                1.49220279        -2.437526
                                0.84622253        2.347767
                                0.43855031        1.223514
                                0.2102388         -1.131537
                                0.1022422         -1.231287
                                0.04832462        0.586808
                                0.02406855        0.648032
[INPUT] 0    0    [1    /1   ]  0.02406855           1
[INPUT] 0    0    [1    /1   ]  0.01198757           1
[INPUT] 1    0    [12   /1   ]  49.83779697       0.000413
                                25.60370921       -0.003442
                                10.40982442       0.097153
                                7.71483683        -0.206888
                                4.49868206        0.083281
                                2.48212838        0.186621
                                1.4387019         0.395144
                                0.72090362        0.377883
                                0.3443302         0.134629
                                0.13162828        0.011074
                                0.05284968        -0.000426
                                0.02121951        0.000256
[INPUT] 1    0    [12   /1   ]  49.83779697       -2.9e-05
                                25.60370921       0.000502
                                10.40982442       -0.020934
                                7.71483683        0.047431
                                4.49868206        -0.020701
                                2.48212838        -0.057583
                                1.4387019         -0.106451
                                0.72090362        -0.140229
                                0.3443302         0.043257
                                0.13162828        0.438687
                                0.05284968        0.536785
                                0.02121951        0.12546
[INPUT] 1    0    [12   /1   ]  49.83779697       4.2e-05
                                25.60370921       -0.00212
                                10.40982442       0.123342
                                7.71483683        -0.318471
                                4.49868206        0.188642
                                2.48212838        0.726079
                                1.4387019         0.273545
                                0.72090362        -0.906715
                                0.3443302         -0.478781
                                0.13162828        0.723888
                                0.05284968        0.310191
                                0.02121951        -0.00813
[INPUT] 1    0    [12   /1   ]  49.83779697       0.000299
                                25.60370921       0.000309
                                10.40982442       -0.131422
                                7.71483683        0.419354
                                4.49868206        -0.585162
                                2.48212838        -0.699409
                                1.4387019         0.95299
                                0.72090362        0.532068
                                0.3443302         -0.999183
                                0.13162828        0.152364
                                0.05284968        0.334676
                                0.02121951        -0.023213
[INPUT] 1    0    [1    /1   ]  0.02121951           1
[INPUT] 1    0    [1    /1   ]  0.00851977           1
[INPUT] 2    0    [10   /1   ]  34.27504048       0.000678
                                16.12418185       -0.017858
                                9.59474528        0.107867
                                3.8690861         0.173949
                                1.82728072        0.26883
                                0.85799457        0.321303
                                0.38035078        0.300128
                                0.15533087        0.170792
                                0.06318167        0.035148
                                0.03734397        0.003549
[INPUT] 2    0    [10   /1   ]  34.27504048       0.000584
                                16.12418185       0.010634
                                9.59474528        -0.094271
                                3.8690861         -0.228668
                                1.82728072        -0.397823
                                0.85799457        -0.076182
                                0.38035078        0.313255
                                0.15533087        0.472762
                                0.06318167        0.196314
                                0.03734397        0.015996
[INPUT] 2    0    [10   /1   ]  34.27504048       0.003588
                                16.12418185       -0.007285
                                9.59474528        -0.060176
                                3.8690861         -0.418946
                                1.82728072        -0.38644
                                0.85799457        0.691971
                                0.38035078        0.444732
                                0.15533087        -0.454572
                                0.06318167        -0.39879
                                0.03734397        -0.019185
[INPUT] 2    0    [1    /1   ]  0.03734397           1
[INPUT] 2    0    [1    /1   ]  0.02207241           1
[INPUT] 3    0    [1    /1   ]  2.578583             1
[INPUT] 3    0    [1    /1   ]  0.725076             1
[INPUT] 3    0    [1    /1   ]  0.2038853            1
[INPUT] 4    0    [1    /1   ]  2.326339             1
[INPUT] 4    0    [1    /1   ]  0.65414707           1
nuclear repulsion = 0
number of shells = 22
number of NR pGTOs = 399
number of NR cGTOs = 88
basis = {'V': [[0, [33.51168105, 0.006845], [15.38532624, -0.214557], [9.96227367, 1.392425], [8.05943355, -1.485929], [3.6960334, -0.026725], [1.49220279, 0.457681], [0.84622253, 0.506886], [0.43855031, 0.249453], [0.2102388, 0.007109], [0.1022422, 0.007055], [0.04832462, -0.000443], [0.02406855, 0.001278]], [0, [33.51168105, -0.001211], [15.38532624, 0.04697], [9.96227367, -0.329808], [8.05943355, 0.363635], [3.6960334, 0.005985], [1.49220279, -0.140857], [0.84622253, -0.203846], [0.43855031, -0.200776], [0.2102388, 0.022081], [0.1022422, 0.429765], [0.04832462, 0.534383], [0.02406855, 0.187984]], [0, [33.51168105, -0.007111], [15.38532624, 0.233807], [9.96227367, -1.69649], [8.05943355, 1.967562], [3.6960334, -0.221986], [1.49220279, -1.566848], [0.84622253, 0.314532], [0.43855031, 0.552762], [0.2102388, 0.87483], [0.1022422, 0.073061], [0.04832462, -0.50294], [0.02406855, -0.328304]], [0, [33.51168105, -0.013861], [15.38532624, 0.372746], [9.96227367, -2.690047], [8.05943355, 3.225629], [3.6960334, -0.892796], [1.49220279, -2.437526], [0.84622253, 2.347767], [0.43855031, 1.223514], [0.2102388, -1.131537], [0.1022422, -1.231287], [0.04832462, 0.586808], [0.02406855, 0.648032]], [0, [0.02406855, 1.0]], [0, [0.01198757, 1.0]], [1, [49.83779697, 0.000413], [25.60370921, -0.003442], [10.40982442, 0.097153], [7.71483683, -0.206888], [4.49868206, 0.083281], [2.48212838, 0.186621], [1.4387019, 0.395144], [0.72090362, 0.377883], [0.3443302, 0.134629], [0.13162828, 0.011074], [0.05284968, -0.000426], [0.02121951, 0.000256]], [1, [49.83779697, -2.9e-05], [25.60370921, 0.000502], [10.40982442, -0.020934], [7.71483683, 0.047431], [4.49868206, -0.020701], [2.48212838, -0.057583], [1.4387019, -0.106451], [0.72090362, -0.140229], [0.3443302, 0.043257], [0.13162828, 0.438687], [0.05284968, 0.536785], [0.02121951, 0.12546]], [1, [49.83779697, 4.2e-05], [25.60370921, -0.00212], [10.40982442, 0.123342], [7.71483683, -0.318471], [4.49868206, 0.188642], [2.48212838, 0.726079], [1.4387019, 0.273545], [0.72090362, -0.906715], [0.3443302, -0.478781], [0.13162828, 0.723888], [0.05284968, 0.310191], [0.02121951, -0.00813]], [1, [49.83779697, 0.000299], [25.60370921, 0.000309], [10.40982442, -0.131422], [7.71483683, 0.419354], [4.49868206, -0.585162], [2.48212838, -0.699409], [1.4387019, 0.95299], [0.72090362, 0.532068], [0.3443302, -0.999183], [0.13162828, 0.152364], [0.05284968, 0.334676], [0.02121951, -0.023213]], [1, [0.02121951, 1.0]], [1, [0.00851977, 1.0]], [2, [34.27504048, 0.000678], [16.12418185, -0.017858], [9.59474528, 0.107867], [3.8690861, 0.173949], [1.82728072, 0.26883], [0.85799457, 0.321303], [0.38035078, 0.300128], [0.15533087, 0.170792], [0.06318167, 0.035148], [0.03734397, 0.003549]], [2, [34.27504048, 0.000584], [16.12418185, 0.010634], [9.59474528, -0.094271], [3.8690861, -0.228668], [1.82728072, -0.397823], [0.85799457, -0.076182], [0.38035078, 0.313255], [0.15533087, 0.472762], [0.06318167, 0.196314], [0.03734397, 0.015996]], [2, [34.27504048, 0.003588], [16.12418185, -0.007285], [9.59474528, -0.060176], [3.8690861, -0.418946], [1.82728072, -0.38644], [0.85799457, 0.691971], [0.38035078, 0.444732], [0.15533087, -0.454572], [0.06318167, -0.39879], [0.03734397, -0.019185]], [2, [0.03734397, 1.0]], [2, [0.02207241, 1.0]], [3, [2.578583, 1.0]], [3, [0.725076, 1.0]], [3, [0.2038853, 1.0]], [4, [2.326339, 1.0]], [4, [0.65414707, 1.0]]]}
ecp = {'V': [10, [[-1, [[], [[8.85341849, 13.0]], [[14.12393489, 1867.96836466], [10.01469125, -417.2185296], [16.87739786, -6735.41034163], [17.42661229, 5248.9519915]], [[8.14766139, 115.09444037]]]], [0, [[], [], [[10.17161428, 8429.89768085], [6.62108601, -4738.0869454], [6.4407206, 3874.69004628], [11.26222343, -9817.80452096], [19.82459033, -286.16022228], [14.35299938, 2571.80634504]], []]], [1, [[], [], [[10.25117807, 40641.17869487], [10.49106006, -41559.00487832], [13.7869188, 3357.33248976], [16.29479305, -896.47755921], [7.79003518, -1904.45864373], [6.62830213, 382.3757783]], []]], [2, [[], [], [[8.601477, 4615.05527413], [10.66674565, -3671.60281242], [15.19026557, 4480.50015686], [8.06189603, -2591.12632756], [19.82232597, 2587.18683714], [18.22318105, -5431.92186158]], []]]]]}
CPU time:         3.52


******** <class 'pyscf.scf.rohf.ROHF'> flags ********
method = ROHF
initial guess = minao
damping factor = 0
level shift factor = 1000.0
DIIS = <class 'pyscf.scf.diis.CDIIS'>
DIIS start cycle = 1
DIIS space = 8
SCF tol = 1e-09
SCF gradient tol = None
max. SCF cycles = 50
direct_scf = True
direct_scf_tol = 1e-13
chkfile to save SCF result = /rc_scratch/bamu3429/tmpz9yc_R
max_memory 4000 MB (current use 158 MB)
num. doubly occ = 5  num. singly occ = 3
Set gradient conv threshold to 3.16228e-05
init E= -70.6968705881994
  HOMO = 499.8925606104  LUMO = 1000.01374117391
cycle= 1 E= -70.6968705881994  delta_E=    0  |g|= 5.13e-06  |ddm|= 1.62e-08
  HOMO = -0.10743939064778  LUMO = 0.0137411739170758
Extra cycle  E= -70.6968705882042  delta_E= -4.79e-12  |g|= 2.04e-06  |ddm|= 1.53e-05
converged SCF energy = -70.6968705882042
**** MO energy ****
                Roothaan           | alpha              | beta
MO #1   energy= -3.22405452927532  | -3.33616085856302  | -3.11194819998763  occ= 2
MO #2   energy= -2.03284777500643  | -2.17080962248642  | -1.89488592752644  occ= 2
MO #3   energy= -2.03284777399936  | -2.17080962885064  | -1.89488591914809  occ= 2
MO #4   energy= -2.03284777300634  | -2.17080963527964  | -1.89488591073305  occ= 2
MO #5   energy= -0.232289547444377 | -0.243687085395535 | -0.220892009493223 occ= 2
MO #6   energy= -0.107439398207645 | -0.506097384329759 | 0.291218215046564  occ= 1
MO #7   energy= -0.107439394444959 | -0.506097378830146 | 0.29121821718425   occ= 1
MO #8   energy= -0.10743939064778  | -0.506097373291757 | 0.291218219348911  occ= 1
MO #9   energy= 0.0137411739170758 | 0.0130194470516866 | 0.0144629007824667 occ= 0
MO #10  energy= 0.0137411740361905 | 0.0130194471463955 | 0.0144629009259882 occ= 0
MO #11  energy= 0.0137411741527638 | 0.0130194472383845 | 0.0144629010671471 occ= 0
MO #12  energy= 0.0267073630890209 | 0.0261187093456747 | 0.0272960168323495 occ= 0
MO #13  energy= 0.0422324181233277 | 0.0400746468597133 | 0.0443901893869432 occ= 0
MO #14  energy= 0.0422324184393962 | 0.0400746470430985 | 0.0443901898356924 occ= 0
MO #15  energy= 0.0422324187543263 | 0.0400746472246954 | 0.0443901902839592 occ= 0
MO #16  energy= 0.061487806610621  | 0.0612039193760577 | 0.0617716938451846 occ= 0
MO #17  energy= 0.0614878066141478 | 0.0612039193796436 | 0.0617716938486517 occ= 0
MO #18  energy= 0.0629460006232646 | 0.0627397368022815 | 0.0631523526027313 occ= 0
MO #19  energy= 0.0629460006434668 | 0.0627397368190763 | 0.0631523526233289 occ= 0
MO #20  energy= 0.0629460006679911 | 0.0627397368402089 | 0.06315235264824   occ= 0
MO #21  energy= 0.132860715667948  | 0.121146239430471  | 0.144575191905424  occ= 0
MO #22  energy= 0.132860715676204  | 0.121146239438423  | 0.144575191913983  occ= 0
MO #23  energy= 0.179314599886687  | 0.175706504501681  | 0.182922777792128  occ= 0
MO #24  energy= 0.179314600129638  | 0.175706504696794  | 0.182922778055751  occ= 0
MO #25  energy= 0.179314600385782  | 0.175706504904917  | 0.18292277833295   occ= 0
MO #26  energy= 0.181819078167107  | 0.173719487192772  | 0.18991866914144   occ= 0
MO #27  energy= 0.181819078927716  | 0.173719487449833  | 0.189918670405599  occ= 0
MO #28  energy= 0.181819079685773  | 0.173719487700438  | 0.18991867167111   occ= 0
MO #29  energy= 0.205987648181957  | 0.200315946352975  | 0.211659350010929  occ= 0
MO #30  energy= 0.232084549962532  | 0.214267943182002  | 0.249901156743059  occ= 0
MO #31  energy= 0.232084549971752  | 0.214267943191247  | 0.249901156752253  occ= 0
MO #32  energy= 0.712578849779239  | 0.673995314340605  | 0.751162601962836  occ= 0
MO #33  energy= 0.712578851469382  | 0.673995315894835  | 0.751162603717331  occ= 0
MO #34  energy= 0.71257885319148   | 0.673995317481508  | 0.751162605505451  occ= 0
MO #35  energy= 0.739154576453288  | 0.724442376371625  | 0.75386677653495   occ= 0
MO #36  energy= 0.740025676935689  | 0.729991579262766  | 0.75005977460861   occ= 0
MO #37  energy= 0.740025677413753  | 0.729991578977911  | 0.750059775849596  occ= 0
MO #38  energy= 0.740025677888907  | 0.729991578695461  | 0.750059777082351  occ= 0
MO #39  energy= 0.740625682611294  | 0.734202218686369  | 0.747049146536221  occ= 0
MO #40  energy= 0.74062568268645   | 0.734202218301367  | 0.747049147071534  occ= 0
MO #41  energy= 0.740625682728846  | 0.734202217886353  | 0.747049147571341  occ= 0
MO #42  energy= 0.771393643909072  | 0.755981062753107  | 0.786806225065038  occ= 0
MO #43  energy= 0.771393643926108  | 0.755981062770457  | 0.786806225081756  occ= 0
MO #44  energy= 0.932854847414831  | 0.91549619681536   | 0.950213498014293  occ= 0
MO #45  energy= 1.53811125602649   | 1.50591128178006   | 1.57031123027291   occ= 0
MO #46  energy= 1.5381112588478    | 1.50591128299759   | 1.570311234698     occ= 0
MO #47  energy= 1.538111261658     | 1.50591128419246   | 1.57031123912354   occ= 0
MO #48  energy= 2.46852671429437   | 2.38744375846225   | 2.54960967012649   occ= 0
MO #49  energy= 2.47730211270441   | 2.42132734825318   | 2.53327687715564   occ= 0
MO #50  energy= 2.47730211352014   | 2.42132734523632   | 2.53327688180397   occ= 0
MO #51  energy= 2.47730211433081   | 2.42132734224167   | 2.53327688641994   occ= 0
MO #52  energy= 2.4838755944915    | 2.44775934678659   | 2.51999184219641   occ= 0
MO #53  energy= 2.48387559495283   | 2.44775934986974   | 2.51999184003591   occ= 0
MO #54  energy= 2.48387559538868   | 2.44775935294596   | 2.51999183783141   occ= 0
MO #55  energy= 2.96658594991483   | 2.9529814422878    | 2.98019045754186   occ= 0
MO #56  energy= 2.96842906521069   | 2.95168760370935   | 2.98517052671204   occ= 0
MO #57  energy= 2.9684290654925    | 2.9516876041516    | 2.98517052683339   occ= 0
MO #58  energy= 2.96842906582916   | 2.95168760464827   | 2.98517052701006   occ= 0
MO #59  energy= 2.96960554869381   | 2.95115982722391   | 2.98805127016371   occ= 0
MO #60  energy= 2.96960554870519   | 2.95115982723778   | 2.98805127017259   occ= 0
MO #61  energy= 2.97342962863834   | 2.94756887471246   | 2.99929038127773   occ= 0
MO #62  energy= 2.97342962949031   | 2.94756887474434   | 2.9992903829476    occ= 0
MO #63  energy= 2.97342963033469   | 2.94756887476639   | 2.99929038461223   occ= 0
MO #64  energy= 2.99043615545505   | 2.91486162764023   | 3.0660106689399    occ= 0
MO #65  energy= 2.99043615855564   | 2.91486163135158   | 3.0660106714227    occ= 0
MO #66  energy= 2.99043616168105   | 2.91486163508759   | 3.06601067393121   occ= 0
MO #67  energy= 3.02489628786295   | 3.00439021120182   | 3.04540236452408   occ= 0
MO #68  energy= 3.02489628786793   | 3.00439021120919   | 3.04540236452667   occ= 0
MO #69  energy= 4.18355422231711   | 4.14866307273696   | 4.21844537189721   occ= 0
MO #70  energy= 6.07821257468141   | 6.04141602639069   | 6.11500912297212   occ= 0
MO #71  energy= 6.07821257872703   | 6.04141602872511   | 6.11500912872896   occ= 0
MO #72  energy= 6.07821258279003   | 6.04141603106514   | 6.11500913451491   occ= 0
MO #73  energy= 7.81772368446434   | 7.71629296953465   | 7.91915439939406   occ= 0
MO #74  energy= 7.82300784996215   | 7.75191270174302   | 7.89410299818129   occ= 0
MO #75  energy= 7.82300785243949   | 7.7519126997361    | 7.89410300514283   occ= 0
MO #76  energy= 7.8230078548999    | 7.75191269774466   | 7.89410301205512   occ= 0
MO #77  energy= 7.82704520457363   | 7.78015018255748   | 7.87394022658978   occ= 0
MO #78  energy= 7.82704520467005   | 7.78015017934077   | 7.87394022999935   occ= 0
MO #79  energy= 7.82704520476924   | 7.78015017615026   | 7.87394023338822   occ= 0
MO #80  energy= 10.3131325644531   | 10.2831656692624   | 10.3430994596439   occ= 0
MO #81  energy= 10.3170472938742   | 10.280144044656    | 10.3539505430924   occ= 0
MO #82  energy= 10.317047294429    | 10.2801440456575   | 10.3539505432006   occ= 0
MO #83  energy= 10.3170472949814   | 10.2801440466529   | 10.3539505433099   occ= 0
MO #84  energy= 10.3198562597347   | 10.2780561792764   | 10.3616563401931   occ= 0
MO #85  energy= 10.3198562597351   | 10.2780561792765   | 10.3616563401937   occ= 0
MO #86  energy= 10.3280920319154   | 10.2710994317128   | 10.3850846331784   occ= 0
MO #87  energy= 10.32809203406     | 10.2710994326455   | 10.385084636534    occ= 0
MO #88  energy= 10.3280920362193   | 10.2710994335843   | 10.3850846399129   occ= 0
 ** Mulliken pop on meta-lowdin orthogonal AOs  **
 ** Mulliken pop  **
pop of  0V 3s        1.99995
pop of  0V 4s        1.99918
pop of  0V 5s        0.00048
pop of  0V 6s        0.00016
pop of  0V 7s        0.00013
pop of  0V 8s        0.00009
pop of  0V 3px       1.99969
pop of  0V 3py       1.99969
pop of  0V 3pz       1.99969
pop of  0V 4px       0.00010
pop of  0V 4py       0.00010
pop of  0V 4pz       0.00010
pop of  0V 5px       0.00002
pop of  0V 5py       0.00002
pop of  0V 5pz       0.00002
pop of  0V 6px       0.00001
pop of  0V 6py       0.00001
pop of  0V 6pz       0.00001
pop of  0V 7px       0.00000
pop of  0V 7py       0.00000
pop of  0V 7pz       0.00000
pop of  0V 8px       0.00000
pop of  0V 8py       0.00000
pop of  0V 8pz       0.00000
pop of  0V 3dxy      0.99550
pop of  0V 3dyz      0.99550
pop of  0V 3dz^2     0.00000
pop of  0V 3dxz      0.99550
pop of  0V 3dx2-y2    0.00000
pop of  0V 4dxy      0.00360
pop of  0V 4dyz      0.00360
pop of  0V 4dz^2     0.00000
pop of  0V 4dxz      0.00360
pop of  0V 4dx2-y2    0.00000
pop of  0V 5dxy      0.00023
pop of  0V 5dyz      0.00023
pop of  0V 5dz^2     0.00000
pop of  0V 5dxz      0.00023
pop of  0V 5dx2-y2    0.00000
pop of  0V 6dxy      0.00059
pop of  0V 6dyz      0.00059
pop of  0V 6dz^2     0.00000
pop of  0V 6dxz      0.00059
pop of  0V 6dx2-y2    0.00000
pop of  0V 7dxy      0.00006
pop of  0V 7dyz      0.00006
pop of  0V 7dz^2     0.00000
pop of  0V 7dxz      0.00006
pop of  0V 7dx2-y2    0.00000
pop of  0V 4fy^3     0.00004
pop of  0V 4fxyz     0.00000
pop of  0V 4fyz^2    0.00002
pop of  0V 4fz^3     0.00006
pop of  0V 4fxz^2    0.00002
pop of  0V 4fzx^2    0.00000
pop of  0V 4fx^3     0.00004
pop of  0V 5fy^3     0.00006
pop of  0V 5fxyz     0.00000
pop of  0V 5fyz^2    0.00004
pop of  0V 5fz^3     0.00010
pop of  0V 5fxz^2    0.00004
pop of  0V 5fzx^2    0.00000
pop of  0V 5fx^3     0.00006
pop of  0V 6fy^3     0.00001
pop of  0V 6fxyz     0.00000
pop of  0V 6fyz^2    0.00001
pop of  0V 6fz^3     0.00002
pop of  0V 6fxz^2    0.00001
pop of  0V 6fzx^2    0.00000
pop of  0V 6fx^3     0.00001
pop of  0V 5g-4      0.00000
pop of  0V 5g-3      0.00000
pop of  0V 5g-2      0.00000
pop of  0V 5g-1      0.00000
pop of  0V 5g 0      0.00000
pop of  0V 5g 1      0.00000
pop of  0V 5g 2      0.00000
pop of  0V 5g 3      0.00000
pop of  0V 5g 4      0.00000
pop of  0V 6g-4      0.00000
pop of  0V 6g-3      0.00001
pop of  0V 6g-2      0.00001
pop of  0V 6g-1      0.00000
pop of  0V 6g 0      0.00000
pop of  0V 6g 1      0.00000
pop of  0V 6g 2      0.00000
pop of  0V 6g 3      0.00001
pop of  0V 6g 4      0.00000
 ** Mulliken atomic charges  **
charge of  0V =     -0.00000

******** <class 'pyscf.mcscf.mc1step.CASSCF'> flags ********
CAS (4e+1e, 6o), ncore = 4, nvir = 78
max_cycle_macro = 50
max_cycle_micro = 4
conv_tol = 1e-07
conv_tol_grad = None
orbital rotation max_stepsize = 0.02
augmented hessian ah_max_cycle = 30
augmented hessian ah_conv_tol = 1e-12
augmented hessian ah_linear dependence = 1e-14
augmented hessian ah_level shift = 0
augmented hessian ah_start_tol = 2.5
augmented hessian ah_start_cycle = 3
augmented hessian ah_grad_trust_region = 3
kf_trust_region = 3
kf_interval = 4
ci_response_space = 4
ci_grad_trust_region = 3
with_dep4 0
natorb = False
canonicalization = True
sorting_mo_energy = False
chkfile = ./scratch/51973/tmpT8KC8S
max_memory 4000 MB (current use 258 MB)
internal_rotation = False

******** SHCI flags ********
executable             = /home/bamu3429/softwares/dice/Dice
mpiprefix              = srun -n20
scratchDirectory       = ./scratch/51973
integralFile           = ./FCIDUMP
configFile             = ./input.dat
outputFile             = ./output.dat
maxIter                = 6
sweep_iter             = []
sweep_epsilon          = []
nPTiter                = 0
Stochastic             = True
fullrestart            = False
restart                = False
num_thrds              = 12
memory                 = None

CASCI E = -70.6972408172278  S^2 = 3.7500000
Set conv_tol_grad to 0.000316228
macro iter 1 (21 JK  4 micro), CASSCF E = -70.7028331090031  dE = -0.0055922918  S^2 = 3.7500000
               |grad[o]|=0.00145  |grad[c]|= None  |ddm|=0.0238
macro iter 2 (21 JK  4 micro), CASSCF E = -70.7157447228503  dE = -0.012911614  S^2 = 3.7500000
               |grad[o]|=0.0104  |grad[c]|= None  |ddm|=0.081
macro iter 3 (21 JK  4 micro), CASSCF E = -70.7190782351494  dE = -0.0033335123  S^2 = 3.7500000
               |grad[o]|=0.0134  |grad[c]|= None  |ddm|=0.0211
macro iter 4 (17 JK  4 micro), CASSCF E = -70.719718580473  dE = -0.00064034532  S^2 = 3.7500000
               |grad[o]|=0.00597  |grad[c]|= None  |ddm|=0.012
macro iter 5 (17 JK  4 micro), CASSCF E = -70.7197353429248  dE = -1.6762452e-05  S^2 = 3.7500000
               |grad[o]|=0.00155  |grad[c]|= None  |ddm|=0.00444
macro iter 6 (16 JK  4 micro), CASSCF E = -70.7197381974859  dE = -2.854561e-06  S^2 = 3.7500000
               |grad[o]|=0.000584  |grad[c]|= None  |ddm|=0.00141
macro iter 7 (11 JK  3 micro), CASSCF E = -70.7197386621272  dE = -4.6464133e-07  S^2 = 3.7500000
               |grad[o]|=0.000258  |grad[c]|= None  |ddm|=0.000646
macro iter 8 (5 JK  1 micro), CASSCF E = -70.7197387009744  dE = -3.8847162e-08  S^2 = 3.7500000
               |grad[o]|=0.000117  |grad[c]|= None  |ddm|=0.000129
1-step CASSCF converged in 8 macro (129 JK 28 micro) steps
CASSCF canonicalization
CASSCF energy = -70.7197387009744


--------------------------------------------------
                 ICMPSPT CALCULATION              
--------------------------------------------------

Perturbation type: MRLCC
With fully internally contracted scheme
With third order correction

Preparing necessary RDMs
......production of RDMs took      22.25 sec
Reading binary 4RDM from DICE
......reading the RDM took          1.60 sec

(GOOD) Trace 4RDM:    120.0 =    5*    4*    3*    2
(GOOD) Trace 3RDM:     60.0 =    5*    4*    3
(GOOD) Trace 2RDM:     20.0 =    5*    4
(GOOD) Trace 1RDM:      5.0 =    5

Producing the integrals
......production of INT took      88.08 sec

Energy_core =  -64.61401926
Energy      =  -70.71973870

WARNING: Have to use natural orbitals from CAASCF
         offdiagonal elements:    0.76905025

Basic ingredients written to int/
......savings of INGREDIENTS took      51.94 sec

Second-order:
perturber CCVV --        -0.158328906
perturber CCAV --        -0.068774311
perturber ACVV --        -0.137967661
perturber CCAA --        -0.006328891
perturber AAVV --        -0.046316961
perturber CAAV --        -0.059225572
perturber AAAV --        -0.009021888
perturber AAAC --        -0.002773547
Total:                   -0.488737739

Third-order:              0.000001984

Total PT       --        -0.488735755

