 &FCI NORB=6 ,NELEC=7 ,MS2=5,
  ORBSYM=1,1,1,1,1,1,
  ISYM=1,
 &END
  2.700986472481e-01    1  1  1  1
  1.354626272543e-08    2  1  1  1
  6.991071621145e-03    2  1  2  1
  3.464543209848e-01    2  2  1  1
  4.581358789753e-04    2  2  2  1
  8.657634037733e-01    2  2  2  2
  6.053611642181e-11    3  1  1  1
  6.498765006208e-07    3  1  2  2
  6.991071596974e-03    3  1  3  1
  6.495445985706e-07    3  2  2  1
  1.554014096231e-04    3  2  3  1
  1.899195355511e-02    3  2  3  2
  3.464543210526e-01    3  3  1  1
  1.554771560198e-04    3  3  2  1
  8.277794974687e-01    3  3  2  2
  2.056741297385e-06    3  3  3  1
  8.657634053947e-01    3  3  3  3
 -5.535808830789e-10    4  1  2  2
  6.852293221830e-09    4  1  3  2
  3.345965496599e-09    4  1  3  3
  6.991071058293e-03    4  1  4  1
 -5.539933773833e-10    4  2  2  1
  6.852355129615e-09    4  2  3  1
  9.387893283835e-08    4  2  3  2
  4.826595011213e-08    4  2  3  3
  1.090261509416e-03    4  2  4  1
  3.178424717760e-02    4  2  4  2
  6.852274908159e-09    4  3  2  1
 -1.877579031697e-07    4  3  2  2
  3.345571960952e-09    4  3  3  1
 -2.413297614791e-08    4  3  3  2
  4.387827725557e-06    4  3  4  1
 -9.019765102267e-06    4  3  4  2
  3.391057757180e-02    4  3  4  3
  3.464543229851e-01    4  4  1  1
  1.090347257621e-03    4  4  2  1
  8.021949150184e-01    4  4  2  2
  4.388199679587e-06    4  4  3  1
  1.803952200763e-05    4  4  3  2
  7.979422568141e-01    4  4  3  3
  9.468479049962e-10    4  4  4  1
  8.657634185202e-01    4  4  4  4
 -1.789288672686e-08    5  1  2  2
 -2.340025034203e-09    5  1  3  2
 -1.647115201490e-09    5  1  3  3
 -4.767387436503e-06    5  1  4  2
  1.175682869763e-03    5  1  4  3
 -5.937809542029e-09    5  1  4  4
  6.991070897635e-03    5  1  5  1
 -1.789236538284e-08    5  2  2  1
 -2.340045187877e-09    5  2  3  1
  2.757626811826e-08    5  2  3  2
 -1.716156277682e-07    5  2  3  3
 -4.767402077892e-06    5  2  4  1
  8.138074949616e-06    5  2  4  2
 -1.608757496675e-02    5  2  4  3
 -3.521642896456e-08    5  2  4  4
 -1.245651658218e-03    5  2  5  1
  3.577171628815e-02    5  2  5  2
 -2.340037074294e-09    5  3  2  1
 -5.515253465329e-08    5  3  2  2
 -1.646504175922e-09    5  3  3  1
  8.580781416447e-08    5  3  3  2
  1.175686249003e-03    5  3  4  1
  1.408068467894e-02    5  3  4  2
 -8.852470703874e-06    5  3  4  3
  8.000389682895e-09    5  3  4  4
 -5.073247802832e-06    5  3  5  1
  7.849678112004e-06    5  3  5  2
  3.391064892749e-02    5  3  5  3
 -4.767444708727e-06    5  4  2  1
 -1.627614079843e-05    5  4  2  2
  1.175696892441e-03    5  4  3  1
  2.006889176013e-03    5  4  3  2
  1.770493197246e-05    5  4  3  3
 -5.937128475879e-09    5  4  4  1
  1.760822056513e-08    5  4  4  2
 -4.000201730366e-09    5  4  4  3
 -3.605288163836e-09    5  4  5  1
  2.036558136634e-08    5  4  5  2
 -9.761515647123e-08    5  4  5  3
  3.391061624610e-02    5  4  5  4
  3.464543236391e-01    5  5  1  1
 -1.245591094519e-03    5  5  2  1
  7.942199833799e-01    5  5  2  2
 -5.072978022953e-06    5  5  3  1
 -1.569934601793e-05    5  5  3  2
  7.979421162670e-01    5  5  3  3
 -3.604878755978e-09    5  5  4  1
 -4.073115182034e-08    5  5  4  2
  1.952303074041e-07    5  5  4  3
  7.979421881934e-01    5  5  4  4
  2.269332159865e-08    5  5  5  1
  8.657634228485e-01    5  5  5  5
 -3.796556693914e-08    6  1  1  1
  4.899183403018e-12    6  1  2  1
 -1.278178053655e-03    6  1  2  2
  3.117837015096e-07    6  1  3  2
 -1.348860516894e-03    6  1  3  3
 -6.009694167672e-10    6  1  4  2
 -6.297703295679e-10    6  1  4  3
  8.086867786345e-04    6  1  4  4
  1.102776389258e-08    6  1  5  2
  2.650517673516e-09    6  1  5  3
  4.822176519822e-08    6  1  5  4
  5.395283540516e-04    6  1  5  5
  6.991070761417e-03    6  1  6  1
  2.281969117862e-11    6  2  1  1
 -1.277986762875e-03    6  2  2  1
  1.625842942219e-09    6  2  2  2
  3.117870708570e-07    6  2  3  1
 -1.015484062529e-05    6  2  3  2
  4.604369215266e-03    6  2  3  3
 -6.010007664709e-10    6  2  4  1
  3.049720427912e-09    6  2  4  2
  4.937815733607e-08    6  2  4  3
 -1.937547542997e-02    6  2  4  4
  1.102787650725e-08    6  2  5  1
  4.481518507406e-08    6  2  5  2
  1.113195109120e-08    6  2  5  3
  7.071022192355e-05    6  2  5  4
  1.477110627601e-02    6  2  5  5
 -4.580448102902e-04    6  2  6  1
  3.897192068552e-02    6  2  6  2
  3.117871304655e-07    6  3  2  1
  2.030968760988e-05    6  3  2  2
 -1.348669993694e-03    6  3  3  1
 -2.302183757866e-03    6  3  3  2
  7.328429039831e-12    6  3  3  3
 -6.297719303496e-10    6  3  4  1
 -1.091846826513e-07    6  3  4  2
 -1.532534774255e-08    6  3  4  3
 -7.922339534396e-05    6  3  4  4
  2.650522033192e-09    6  3  5  1
 -1.874167920616e-09    6  3  5  2
  1.604415476422e-08    6  3  5  3
 -1.741750841452e-02    6  3  5  4
  5.891370764293e-05    6  3  5  5
 -2.020417494906e-06    6  3  6  1
  1.170089289360e-06    6  3  6  2
  3.870665721424e-02    6  3  6  3
 -6.009759420133e-10    6  4  2  1
 -6.099435340911e-09    6  4  2  2
 -6.297779436808e-10    6  4  3  1
  5.980654380769e-08    6  4  3  2
  3.065071042620e-08    6  4  3  3
  8.089005984959e-04    6  4  4  1
  9.687738755267e-03    6  4  4  2
  3.961170176094e-05    6  4  4  3
  4.822206394170e-08    6  4  5  1
 -4.302164224902e-05    6  4  5  2
  1.044681845653e-02    6  4  5  3
 -6.085937610358e-08    6  4  5  4
 -2.455127248781e-08    6  4  5  5
 -1.325650200843e-10    6  4  6  1
  3.767396695137e-09    6  4  6  2
  3.736220320263e-09    6  4  6  3
  2.591440009589e-02    6  4  6  4
  1.102788305712e-08    6  5  2  1
 -8.963046155831e-08    6  5  2  2
  2.650543289030e-09    6  5  3  1
 -9.257791848021e-09    6  5  3  2
 -3.208833822169e-08    6  5  3  3
  4.822209458957e-08    6  5  4  1
 -2.768859206965e-05    6  5  4  2
  6.970693002302e-03    6  5  4  3
  1.217187295107e-07    6  5  4  4
  5.397391837757e-04    6  5  5  1
 -7.385554995441e-03    6  5  5  2
 -2.945686143502e-05    6  5  5  3
  1.227563030216e-08    6  5  5  4
  2.781838006768e-09    6  5  6  1
 -1.034160137562e-07    6  5  6  2
 -2.357606463709e-08    6  5  6  3
  7.143956830329e-07    6  5  6  4
  2.192686086691e-02    6  5  6  5
  3.464543241116e-01    6  6  1  1
 -4.579757789675e-04    6  6  2  1
  7.878195680938e-01    6  6  2  2
 -2.020114695871e-06    6  6  3  1
 -2.340172828220e-06    6  6  3  2
  7.883500943273e-01    6  6  3  3
 -1.321424614271e-10    6  6  4  1
 -7.534792519606e-09    6  6  4  2
 -7.472468290500e-09    6  6  4  3
  8.139346263008e-01    6  6  4  4
  2.781254174426e-09    6  6  5  1
  2.068320761703e-07    6  6  5  2
  4.715214007519e-08    6  6  5  3
 -1.428791032633e-06    6  6  5  4
  8.219097055287e-01    6  6  5  5
  1.277733608681e-03    6  6  6  1
 -1.567376634317e-09    6  6  6  2
 -6.863629195379e-12    6  6  6  3
  8.657634304979e-01    6  6  6  6
 -2.235665192343e+00    1  1  0  0
 -3.603011954773e-07    2  1  0  0
 -4.402635164628e+00    2  2  0  0
 -1.582225275915e-09    3  1  0  0
 -1.122312563771e-12    3  2  0  0
 -4.402635166593e+00    3  3  0  0
 -2.040346478831e-12    4  1  0  0
 -4.402635193047e+00    4  4  0  0
  3.014144026990e-12    5  1  0  0
 -4.402635201748e+00    5  5  0  0
  9.990816589033e-07    6  1  0  0
 -8.938033629868e-11    6  2  0  0
 -4.402635208275e+00    6  6  0  0
    -88.448932781148   0  0  0  0
