#INFO: **** input file is /projects/bamu3429/BENCHMARK/fresh_atoms/MRPT/vtz/atoms/Mn_0/mrpt.py ****
import json
from pyscf import gto,scf,mcscf, fci, lo, ci, cc
from pyscf.scf import ROHF, UHF,ROKS
import numpy as np
import pandas as pd

# THIS IS WERE IT STARTS ====================================

df=json.load(open("../../../trail.json"))

spins={'Sc':1, 'Ti':2, 'V':3, 'Cr':6, 'Mn':5, 'Fe':4, 'Cu':1}

nd={'Sc':(1,0), 'Ti':(2,0), 'V':(3,0), 'Cr':(5,0), 'Mn':(5,0), 'Fe':(5,1), 'Cu':(5,5)}

cas={'Sc':3, 'Ti':4, 'V':5, 'Cr':6, 'Mn':7, 'Fe':8, 'Cu':11}

datacsv={}
for nm in ['atom','charge','method','basis','pseudopotential','hf',
           'totalenergy','totalenergy-stocherr','totalenergy-syserr']:
  datacsv[nm]=[]

basis='vtz'
el='Mn'
charge=0

mol=gto.Mole()
mol.ecp={}
mol.basis={}
mol.ecp[el]=gto.basis.parse_ecp(df[el]['ecp'])
mol.basis[el]=gto.basis.parse(df[el][basis])
mol.charge=charge
if el == 'Cr' or el == 'Cu':
  mol.spin=spins[el]-charge
else:
  mol.spin=spins[el]+charge
mol.build(atom="%s 0. 0. 0."%el,verbose=4)

m=ROHF(mol)
m.level_shift=1000.0
dm=m.from_chk("../../../../HF/atoms/"+el+basis+str(charge)+".chk")
hf=m.kernel(dm)
m.analyze()

from pyscf.shciscf import shci
mc = shci.SHCISCF(m, 6, cas[el]-charge)
#mc.fcisolver.conv_tol = 1e-14
mc.fcisolver.mpiprefix="srun -n20"
mc.fcisolver.num_thrds=12
mc.verbose = 4
cas=mc.kernel()[0]
 
from pyscf.icmpspt import icmpspt
pt=icmpspt.icmpspt(mc,rdmM=500, PTM=1000,\
                          pttype="MRLCC",\
                          third_order=True,\
                          fully_ic=True,\
                          do_dm4=True)

datacsv['atom'].append(el)
datacsv['charge'].append(charge)
datacsv['method'].append('MRPT')
datacsv['basis'].append(basis)
datacsv['pseudopotential'].append('trail')
datacsv['hf'].append(hf)
datacsv['totalenergy'].append(cas+pt)
datacsv['totalenergy-stocherr'].append(0.0)
datacsv['totalenergy-syserr'].append(0.0)
pd.DataFrame(datacsv).to_csv(el+".csv",index=False)

#INFO: ******************** input file end ********************


System: ('Linux', 'bnode0302.rc.int.colorado.edu', '3.10.0-514.41.1.el7.x86_64', '#1 SMP Wed Jan 17 10:26:16 EST 2018', 'x86_64', 'x86_64')  Threads 28
Python 2.7.11 (default, Mar 22 2016, 01:42:54) 
[GCC Intel(R) C++ gcc 4.8 mode]
numpy 1.11.1  scipy 0.17.1
Date: Wed Apr 18 16:22:52 2018
PySCF version 1.4.6
PySCF path  /projects/bamu3429/softwares/pyscf_uptodate/pyscf
GIT ORIG_HEAD f3591ef22170896a4cdc2aadaa6f5da388ffcadb
GIT HEAD      ref: refs/heads/master
GIT master branch  1847583fb1d2472321833d3c71c8b7008e5fabf5

[INPUT] VERBOSE 4
[INPUT] num atoms = 1
[INPUT] num electrons = 15
[INPUT] charge = 0
[INPUT] spin (= nelec alpha-beta = 2S) = 5
[INPUT] symmetry False subgroup None
[INPUT]  1 Mn     0.000000000000   0.000000000000   0.000000000000 AA    0.000000000000   0.000000000000   0.000000000000 Bohr
[INPUT] ---------------- BASIS SET ---------------- 
[INPUT] l, kappa, [nprim/nctr], expnt,             c_1 c_2 ...
[INPUT] Mn
[INPUT] 0    0    [12   /1   ]  41.19094709       0.0124
                                21.94503151       -0.141461
                                12.89081507       0.669584
                                8.14876869        -1.015431
                                3.94904809        0.149151
                                1.91298055        0.350677
                                1.10736282        0.627006
                                0.4793266         0.235349
                                0.22675293        -0.024214
                                0.10639652        0.017357
                                0.05000494        -0.005272
                                0.0234982         0.002181
[INPUT] 0    0    [12   /1   ]  41.19094709       -0.002036
                                21.94503151       0.02709
                                12.89081507       -0.142056
                                8.14876869        0.229945
                                3.94904809        -0.035538
                                1.91298055        -0.085336
                                1.10736282        -0.24355
                                0.4793266         -0.201798
                                0.22675293        0.098761
                                0.10639652        0.439512
                                0.05000494        0.524416
                                0.0234982         0.13192
[INPUT] 0    0    [12   /1   ]  41.19094709       -0.004646
                                21.94503151       0.0905
                                12.89081507       -0.585022
                                8.14876869        1.111867
                                3.94904809        -0.363063
                                1.91298055        -1.33458
                                1.10736282        0.12279
                                0.4793266         0.708339
                                0.22675293        0.760146
                                0.10639652        0.035304
                                0.05000494        -0.576692
                                0.0234982         -0.237352
[INPUT] 0    0    [12   /1   ]  41.19094709       -0.002383
                                21.94503151       0.092523
                                12.89081507       -0.733494
                                8.14876869        1.604539
                                3.94904809        -0.989623
                                1.91298055        -2.287095
                                1.10736282        2.091286
                                0.4793266         1.469902
                                0.22675293        -1.522953
                                0.10639652        -0.860672
                                0.05000494        0.655242
                                0.0234982         0.514686
[INPUT] 0    0    [1    /1   ]  0.0234982            1
[INPUT] 0    0    [1    /1   ]  0.01104221           1
[INPUT] 1    0    [12   /1   ]  60.1913049        0.000757
                                31.1792672        -0.006538
                                16.24276866       0.042902
                                8.80021485        -0.164602
                                5.33575038        0.099387
                                3.0325056         0.217723
                                1.63861968        0.443669
                                0.80258711        0.32785
                                0.40627833        0.098641
                                0.17382998        0.011768
                                0.07306386        -0.000703
                                0.03071005        0.000403
[INPUT] 1    0    [12   /1   ]  60.1913049        -0.000118
                                31.1792672        0.001208
                                16.24276866       -0.009122
                                8.80021485        0.038924
                                5.33575038        -0.027473
                                3.0325056         -0.058215
                                1.63861968        -0.124371
                                0.80258711        -0.107355
                                0.40627833        0.040741
                                0.17382998        0.350952
                                0.07306386        0.523294
                                0.03071005        0.234255
[INPUT] 1    0    [12   /1   ]  60.1913049        -0.000242
                                31.1792672        -0.00184
                                16.24276866       0.036267
                                8.80021485        -0.233302
                                5.33575038        0.180046
                                3.0325056         0.831949
                                1.63861968        0.087927
                                0.80258711        -0.875277
                                0.40627833        -0.420967
                                0.17382998        0.588099
                                0.07306386        0.409206
                                0.03071005        0.007901
[INPUT] 1    0    [12   /1   ]  60.1913049        -0.000706
                                31.1792672        -0.000652
                                16.24276866       0.057679
                                8.80021485        -0.540394
                                5.33575038        1.073974
                                3.0325056         0.867896
                                1.63861968        -1.570127
                                0.80258711        -0.63828
                                0.40627833        1.540496
                                0.17382998        -0.071965
                                0.07306386        -0.646393
                                0.03071005        -0.005855
[INPUT] 1    0    [1    /1   ]  0.03071005           1
[INPUT] 1    0    [1    /1   ]  0.01290798           1
[INPUT] 2    0    [10   /1   ]  52.56900844       0.000307
                                23.81654224       -0.007961
                                11.32693504       0.114253
                                4.99176622        0.164228
                                2.46839125        0.269996
                                1.15974738        0.320627
                                0.53124091        0.273188
                                0.24220121        0.161357
                                0.11248934        0.058244
                                0.05201371        0.009574
[INPUT] 2    0    [10   /1   ]  52.56900844       0.000329
                                23.81654224       0.004981
                                11.32693504       -0.107244
                                4.99176622        -0.205338
                                2.46839125        -0.365645
                                1.15974738        -0.091627
                                0.53124091        0.261299
                                0.24220121        0.408087
                                0.11248934        0.283046
                                0.05201371        0.07082
[INPUT] 2    0    [10   /1   ]  52.56900844       -0.002087
                                23.81654224       0.00277
                                11.32693504       0.106828
                                4.99176622        0.384896
                                2.46839125        0.360764
                                1.15974738        -0.599205
                                0.53124091        -0.495286
                                0.24220121        0.247074
                                0.11248934        0.472515
                                0.05201371        0.138768
[INPUT] 2    0    [1    /1   ]  0.05201371           1
[INPUT] 2    0    [1    /1   ]  0.02405051           1
[INPUT] 3    0    [1    /1   ]  3.339139             1
[INPUT] 3    0    [1    /1   ]  0.926076             1
[INPUT] 3    0    [1    /1   ]  0.25683768           1
[INPUT] 4    0    [1    /1   ]  2.982582             1
[INPUT] 4    0    [1    /1   ]  0.82718854           1
nuclear repulsion = 0
number of shells = 22
number of NR pGTOs = 399
number of NR cGTOs = 88
basis = {'Mn': [[0, [41.19094709, 0.0124], [21.94503151, -0.141461], [12.89081507, 0.669584], [8.14876869, -1.015431], [3.94904809, 0.149151], [1.91298055, 0.350677], [1.10736282, 0.627006], [0.4793266, 0.235349], [0.22675293, -0.024214], [0.10639652, 0.017357], [0.05000494, -0.005272], [0.0234982, 0.002181]], [0, [41.19094709, -0.002036], [21.94503151, 0.02709], [12.89081507, -0.142056], [8.14876869, 0.229945], [3.94904809, -0.035538], [1.91298055, -0.085336], [1.10736282, -0.24355], [0.4793266, -0.201798], [0.22675293, 0.098761], [0.10639652, 0.439512], [0.05000494, 0.524416], [0.0234982, 0.13192]], [0, [41.19094709, -0.004646], [21.94503151, 0.0905], [12.89081507, -0.585022], [8.14876869, 1.111867], [3.94904809, -0.363063], [1.91298055, -1.33458], [1.10736282, 0.12279], [0.4793266, 0.708339], [0.22675293, 0.760146], [0.10639652, 0.035304], [0.05000494, -0.576692], [0.0234982, -0.237352]], [0, [41.19094709, -0.002383], [21.94503151, 0.092523], [12.89081507, -0.733494], [8.14876869, 1.604539], [3.94904809, -0.989623], [1.91298055, -2.287095], [1.10736282, 2.091286], [0.4793266, 1.469902], [0.22675293, -1.522953], [0.10639652, -0.860672], [0.05000494, 0.655242], [0.0234982, 0.514686]], [0, [0.0234982, 1.0]], [0, [0.01104221, 1.0]], [1, [60.1913049, 0.000757], [31.1792672, -0.006538], [16.24276866, 0.042902], [8.80021485, -0.164602], [5.33575038, 0.099387], [3.0325056, 0.217723], [1.63861968, 0.443669], [0.80258711, 0.32785], [0.40627833, 0.098641], [0.17382998, 0.011768], [0.07306386, -0.000703], [0.03071005, 0.000403]], [1, [60.1913049, -0.000118], [31.1792672, 0.001208], [16.24276866, -0.009122], [8.80021485, 0.038924], [5.33575038, -0.027473], [3.0325056, -0.058215], [1.63861968, -0.124371], [0.80258711, -0.107355], [0.40627833, 0.040741], [0.17382998, 0.350952], [0.07306386, 0.523294], [0.03071005, 0.234255]], [1, [60.1913049, -0.000242], [31.1792672, -0.00184], [16.24276866, 0.036267], [8.80021485, -0.233302], [5.33575038, 0.180046], [3.0325056, 0.831949], [1.63861968, 0.087927], [0.80258711, -0.875277], [0.40627833, -0.420967], [0.17382998, 0.588099], [0.07306386, 0.409206], [0.03071005, 0.007901]], [1, [60.1913049, -0.000706], [31.1792672, -0.000652], [16.24276866, 0.057679], [8.80021485, -0.540394], [5.33575038, 1.073974], [3.0325056, 0.867896], [1.63861968, -1.570127], [0.80258711, -0.63828], [0.40627833, 1.540496], [0.17382998, -0.071965], [0.07306386, -0.646393], [0.03071005, -0.005855]], [1, [0.03071005, 1.0]], [1, [0.01290798, 1.0]], [2, [52.56900844, 0.000307], [23.81654224, -0.007961], [11.32693504, 0.114253], [4.99176622, 0.164228], [2.46839125, 0.269996], [1.15974738, 0.320627], [0.53124091, 0.273188], [0.24220121, 0.161357], [0.11248934, 0.058244], [0.05201371, 0.009574]], [2, [52.56900844, 0.000329], [23.81654224, 0.004981], [11.32693504, -0.107244], [4.99176622, -0.205338], [2.46839125, -0.365645], [1.15974738, -0.091627], [0.53124091, 0.261299], [0.24220121, 0.408087], [0.11248934, 0.283046], [0.05201371, 0.07082]], [2, [52.56900844, -0.002087], [23.81654224, 0.00277], [11.32693504, 0.106828], [4.99176622, 0.384896], [2.46839125, 0.360764], [1.15974738, -0.599205], [0.53124091, -0.495286], [0.24220121, 0.247074], [0.11248934, 0.472515], [0.05201371, 0.138768]], [2, [0.05201371, 1.0]], [2, [0.02405051, 1.0]], [3, [3.339139, 1.0]], [3, [0.926076, 1.0]], [3, [0.25683768, 1.0]], [4, [2.982582, 1.0]], [4, [0.82718854, 1.0]]]}
ecp = {'Mn': [10, [[-1, [[], [[18.43432244, 15.0]], [[12.74175213, 31301.56494509], [11.67410914, -4576.3546318], [12.90376156, -26766.73507377], [4.97171871, -4.09339906]], [[8.79264819, 276.51483655]]]], [0, [[], [], [[13.56187871, 2771.78238977], [9.44812535, 12553.69429672], [10.76503846, 1886.79316638], [11.65345594, -9260.55332402], [8.48073002, -8943.95003535], [6.96707028, 1041.73211249]], []]], [1, [[], [], [[12.71342918, -23181.32761179], [18.03174513, 111577.22220216], [16.6827906, -42399.84416473], [13.18867124, 16025.79106608], [18.42861128, -76264.60573764], [12.90928974, 14270.47832347]], []]], [2, [[], [], [[8.13384228, -382.83904013], [14.28699222, 5676.99013005], [11.14406629, 35338.03440844], [11.37674978, -38881.44458388], [18.25818233, 3550.6602642], [17.73146307, -5317.47975296]], []]]]]}
CPU time:         3.66


******** <class 'pyscf.scf.rohf.ROHF'> flags ********
method = ROHF
initial guess = minao
damping factor = 0
level shift factor = 1000.0
DIIS = <class 'pyscf.scf.diis.CDIIS'>
DIIS start cycle = 1
DIIS space = 8
SCF tol = 1e-09
SCF gradient tol = None
max. SCF cycles = 50
direct_scf = True
direct_scf_tol = 1e-13
chkfile to save SCF result = /rc_scratch/bamu3429/tmpnB26RG
max_memory 4000 MB (current use 171 MB)
num. doubly occ = 5  num. singly occ = 5
Set gradient conv threshold to 3.16228e-05
init E= -103.517517230502
  HOMO = 499.865418101905  LUMO = 1000.01942854347
cycle= 1 E= -103.517517230502  delta_E= -2.84e-14  |g|= 2.86e-06  |ddm|= 8.34e-09
  HOMO = -0.13458189889536  LUMO = 0.0194285434651254
Extra cycle  E= -103.517517230503  delta_E= -5.83e-13  |g|= 8.95e-07  |ddm|= 9.7e-06
converged SCF energy = -103.517517230503
**** MO energy ****
                Roothaan           | alpha              | beta
MO #1   energy= -4.0143082294221   | -4.23258710371276  | -3.79602935513146  occ= 2
MO #2   energy= -2.52128934360962  | -2.78634317378748  | -2.25623551343177  occ= 2
MO #3   energy= -2.52128934059814  | -2.78634317671621  | -2.25623550448008  occ= 2
MO #4   energy= -2.52128933109541  | -2.78634318583877  | -2.25623547635205  occ= 2
MO #5   energy= -0.250772644313911 | -0.268250327901569 | -0.233294960725573 occ= 2
MO #6   energy= -0.134581913050354 | -0.630223485923947 | 0.361059709767085  occ= 1
MO #7   energy= -0.134581912562069 | -0.63022348777859  | 0.361059710617819  occ= 1
MO #8   energy= -0.134581903841517 | -0.630223491582887 | 0.361059725379419  occ= 1
MO #9   energy= -0.134581901067578 | -0.630223492407631 | 0.36105973015383   occ= 1
MO #10  energy= -0.13458189889536  | -0.630223493448788 | 0.361059733812052  occ= 1
MO #11  energy= 0.0194285434651254 | 0.0180501108422985 | 0.0208069760879492 occ= 0
MO #12  energy= 0.0194285439724995 | 0.0180501118111385 | 0.0208069761338676 occ= 0
MO #13  energy= 0.0194285454716404 | 0.0180501147661323 | 0.0208069761771521 occ= 0
MO #14  energy= 0.0235556032206836 | 0.0228691925618961 | 0.0242420138794711 occ= 0
MO #15  energy= 0.0639133869201002 | 0.0601803132517632 | 0.0676464605884378 occ= 0
MO #16  energy= 0.0639133869670923 | 0.060180317534221  | 0.067646456399968  occ= 0
MO #17  energy= 0.0639133869830507 | 0.0601803119719945 | 0.0676464619941051 occ= 0
MO #18  energy= 0.072968430968745  | 0.0727603271888837 | 0.0731765578597908 occ= 0
MO #19  energy= 0.0729684310205128 | 0.0727603272476649 | 0.073176557933113  occ= 0
MO #20  energy= 0.0729684340231739 | 0.072760330314841  | 0.0731765609503658 occ= 0
MO #21  energy= 0.0729684349598714 | 0.0727603312679987 | 0.0731765618769649 occ= 0
MO #22  energy= 0.0729684357107798 | 0.0727603320358749 | 0.0731765626348117 occ= 0
MO #23  energy= 0.195375460022832  | 0.187737355448828  | 0.203013564596847  occ= 0
MO #24  energy= 0.222677318972565  | 0.218372499333435  | 0.226982047496003  occ= 0
MO #25  energy= 0.222677318981107  | 0.218372499427811  | 0.226982047609569  occ= 0
MO #26  energy= 0.222677325721552  | 0.218372507174042  | 0.226982054364786  occ= 0
MO #27  energy= 0.222677327892787  | 0.218372509614057  | 0.226982056436929  occ= 0
MO #28  energy= 0.222677329562462  | 0.218372511545584  | 0.226982058134772  occ= 0
MO #29  energy= 0.25975451066136   | 0.245685950269516  | 0.273823071053202  occ= 0
MO #30  energy= 0.259754512077591  | 0.245685955384069  | 0.273823068771111  occ= 0
MO #31  energy= 0.259754517045562  | 0.245685971444428  | 0.27382306264671   occ= 0
MO #32  energy= 0.897045109722963  | 0.848450614127389  | 0.945639636257442  occ= 0
MO #33  energy= 0.897045110684791  | 0.848450614345327  | 0.945639636499429  occ= 0
MO #34  energy= 0.897045115438575  | 0.848450626167721  | 0.945639640017856  occ= 0
MO #35  energy= 0.897045117339806  | 0.848450630026738  | 0.945639641083953  occ= 0
MO #36  energy= 0.897045118740225  | 0.848450633009774  | 0.945639642041284  occ= 0
MO #37  energy= 0.906012382129789  | 0.877452366211892  | 0.934572398047668  occ= 0
MO #38  energy= 0.933586154532933  | 0.918191295297753  | 0.948981013768107  occ= 0
MO #39  energy= 0.933586154559568  | 0.918191295339244  | 0.948981013779887  occ= 0
MO #40  energy= 0.933586170575092  | 0.918191315882518  | 0.948981025267662  occ= 0
MO #41  energy= 0.933586171474767  | 0.918191317115715  | 0.94898102583381   occ= 0
MO #42  energy= 0.933586178930501  | 0.918191326642047  | 0.94898103121896   occ= 0
MO #43  energy= 0.933586184365352  | 0.918191333660813  | 0.948981035069884  occ= 0
MO #44  energy= 0.933586185756305  | 0.918191335435955  | 0.948981036076651  occ= 0
MO #45  energy= 1.84000594558099   | 1.78280635503808   | 1.8972055361239    occ= 0
MO #46  energy= 1.84000595061993   | 1.78280636282759   | 1.89720553841227   occ= 0
MO #47  energy= 1.84000596643132   | 1.78280638631642   | 1.89720554654623   occ= 0
MO #48  energy= 3.14000784313949   | 3.04421956596207   | 3.23579612031689   occ= 0
MO #49  energy= 3.14000784315732   | 3.04421956599007   | 3.23579612032459   occ= 0
MO #50  energy= 3.1400078551853    | 3.04421958250884   | 3.23579612786176   occ= 0
MO #51  energy= 3.14000785584161   | 3.04421958347789   | 3.23579612820533   occ= 0
MO #52  energy= 3.14000786144564   | 3.04421959111091   | 3.23579613178038   occ= 0
MO #53  energy= 3.1400078655375    | 3.04421959692653   | 3.23579613414849   occ= 0
MO #54  energy= 3.14000786657996   | 3.04421959831943   | 3.2357961348405    occ= 0
MO #55  energy= 3.7637501031122    | 3.72844547405616   | 3.79905473216824   occ= 0
MO #56  energy= 3.76375010311361   | 3.72844547405861   | 3.7990547321686    occ= 0
MO #57  energy= 3.76375011677212   | 3.72844549221143   | 3.7990547413328    occ= 0
MO #58  energy= 3.76375011686441   | 3.72844549235285   | 3.79905474137596   occ= 0
MO #59  energy= 3.76375012573834   | 3.7284455040793    | 3.79905474739737   occ= 0
MO #60  energy= 3.76375012711901   | 3.72844550602626   | 3.79905474821176   occ= 0
MO #61  energy= 3.76375013065856   | 3.72844551065504   | 3.79905475066208   occ= 0
MO #62  energy= 3.76375013590098   | 3.72844551775437   | 3.7990547540476    occ= 0
MO #63  energy= 3.76375013636358   | 3.72844551835096   | 3.7990547543762    occ= 0
MO #64  energy= 3.80791714659379   | 3.70391763526402   | 3.91191664680362   occ= 0
MO #65  energy= 3.80791714707104   | 3.70391763602785   | 3.91191664671855   occ= 0
MO #66  energy= 3.80791715043195   | 3.70391763706432   | 3.911916653697     occ= 0
MO #67  energy= 3.80791715179419   | 3.70391763781657   | 3.91191665596873   occ= 0
MO #68  energy= 3.80791715271878   | 3.70391763822776   | 3.91191665766381   occ= 0
MO #69  energy= 4.9403167009921    | 4.86896071066721   | 5.01167269131698   occ= 0
MO #70  energy= 7.47254540024379   | 7.39743338303708   | 7.54765741745051   occ= 0
MO #71  energy= 7.47254540311377   | 7.39743338282073   | 7.54765742340683   occ= 0
MO #72  energy= 7.47254541187754   | 7.3974333823405    | 7.54765744141457   occ= 0
MO #73  energy= 9.95560714022752   | 9.82631359138878   | 10.0849006890663   occ= 0
MO #74  energy= 9.95560714023557   | 9.82631359145412   | 10.084900689017    occ= 0
MO #75  energy= 9.95560714172395   | 9.82631358510091   | 10.084900698347    occ= 0
MO #76  energy= 9.9556071417782    | 9.82631358451894   | 10.0849006990375   occ= 0
MO #77  energy= 9.95560714244881   | 9.82631358167809   | 10.0849007032195   occ= 0
MO #78  energy= 9.95560714317697   | 9.82631357971328   | 10.0849007066407   occ= 0
MO #79  energy= 9.95560714327093   | 9.82631357917269   | 10.0849007073692   occ= 0
MO #80  energy= 13.1341958649934   | 13.0488581775894   | 13.2195335523974   occ= 0
MO #81  energy= 13.1341958649941   | 13.0488581775888   | 13.2195335523994   occ= 0
MO #82  energy= 13.1341958676819   | 13.0488581774095   | 13.2195335579542   occ= 0
MO #83  energy= 13.1341958677132   | 13.0488581773987   | 13.2195335580278   occ= 0
MO #84  energy= 13.1341958694107   | 13.0488581772877   | 13.2195335615338   occ= 0
MO #85  energy= 13.1341958697657   | 13.0488581772643   | 13.2195335622672   occ= 0
MO #86  energy= 13.134195870405    | 13.0488581772064   | 13.2195335636036   occ= 0
MO #87  energy= 13.1341958715641   | 13.0488581772645   | 13.2195335658637   occ= 0
MO #88  energy= 13.1341958716399   | 13.0488581772473   | 13.2195335660326   occ= 0
 ** Mulliken pop on meta-lowdin orthogonal AOs  **
 ** Mulliken pop  **
pop of  0Mn 3s        1.99998
pop of  0Mn 4s        1.99913
pop of  0Mn 5s        0.00044
pop of  0Mn 6s        0.00017
pop of  0Mn 7s        0.00017
pop of  0Mn 8s        0.00011
pop of  0Mn 3px       1.99993
pop of  0Mn 3py       1.99993
pop of  0Mn 3pz       1.99993
pop of  0Mn 4px       0.00005
pop of  0Mn 4py       0.00005
pop of  0Mn 4pz       0.00005
pop of  0Mn 5px       0.00001
pop of  0Mn 5py       0.00001
pop of  0Mn 5pz       0.00001
pop of  0Mn 6px       0.00000
pop of  0Mn 6py       0.00000
pop of  0Mn 6pz       0.00000
pop of  0Mn 7px       0.00000
pop of  0Mn 7py       0.00000
pop of  0Mn 7pz       0.00000
pop of  0Mn 8px       0.00000
pop of  0Mn 8py       0.00000
pop of  0Mn 8pz       0.00000
pop of  0Mn 3dxy      0.99600
pop of  0Mn 3dyz      0.99600
pop of  0Mn 3dz^2     0.99600
pop of  0Mn 3dxz      0.99600
pop of  0Mn 3dx2-y2    0.99600
pop of  0Mn 4dxy      0.00318
pop of  0Mn 4dyz      0.00318
pop of  0Mn 4dz^2     0.00318
pop of  0Mn 4dxz      0.00318
pop of  0Mn 4dx2-y2    0.00318
pop of  0Mn 5dxy      0.00020
pop of  0Mn 5dyz      0.00020
pop of  0Mn 5dz^2     0.00020
pop of  0Mn 5dxz      0.00020
pop of  0Mn 5dx2-y2    0.00020
pop of  0Mn 6dxy      0.00059
pop of  0Mn 6dyz      0.00059
pop of  0Mn 6dz^2     0.00059
pop of  0Mn 6dxz      0.00059
pop of  0Mn 6dx2-y2    0.00059
pop of  0Mn 7dxy      0.00004
pop of  0Mn 7dyz      0.00004
pop of  0Mn 7dz^2     0.00004
pop of  0Mn 7dxz      0.00004
pop of  0Mn 7dx2-y2    0.00004
pop of  0Mn 4fy^3     0.00000
pop of  0Mn 4fxyz     0.00000
pop of  0Mn 4fyz^2    0.00000
pop of  0Mn 4fz^3     0.00000
pop of  0Mn 4fxz^2    0.00000
pop of  0Mn 4fzx^2    0.00000
pop of  0Mn 4fx^3     0.00000
pop of  0Mn 5fy^3     0.00000
pop of  0Mn 5fxyz     0.00000
pop of  0Mn 5fyz^2    0.00000
pop of  0Mn 5fz^3     0.00000
pop of  0Mn 5fxz^2    0.00000
pop of  0Mn 5fzx^2    0.00000
pop of  0Mn 5fx^3     0.00000
pop of  0Mn 6fy^3     0.00000
pop of  0Mn 6fxyz     0.00000
pop of  0Mn 6fyz^2    0.00000
pop of  0Mn 6fz^3     0.00000
pop of  0Mn 6fxz^2    0.00000
pop of  0Mn 6fzx^2    0.00000
pop of  0Mn 6fx^3     0.00000
pop of  0Mn 5g-4      0.00000
pop of  0Mn 5g-3      0.00000
pop of  0Mn 5g-2      0.00000
pop of  0Mn 5g-1      0.00000
pop of  0Mn 5g 0      0.00000
pop of  0Mn 5g 1      0.00000
pop of  0Mn 5g 2      0.00000
pop of  0Mn 5g 3      0.00000
pop of  0Mn 5g 4      0.00000
pop of  0Mn 6g-4      0.00000
pop of  0Mn 6g-3      0.00000
pop of  0Mn 6g-2      0.00000
pop of  0Mn 6g-1      0.00000
pop of  0Mn 6g 0      0.00000
pop of  0Mn 6g 1      0.00000
pop of  0Mn 6g 2      0.00000
pop of  0Mn 6g 3      0.00000
pop of  0Mn 6g 4      0.00000
 ** Mulliken atomic charges  **
charge of  0Mn =     -0.00000

******** <class 'pyscf.mcscf.mc1step.CASSCF'> flags ********
CAS (6e+1e, 6o), ncore = 4, nvir = 78
max_cycle_macro = 50
max_cycle_micro = 4
conv_tol = 1e-07
conv_tol_grad = None
orbital rotation max_stepsize = 0.02
augmented hessian ah_max_cycle = 30
augmented hessian ah_conv_tol = 1e-12
augmented hessian ah_linear dependence = 1e-14
augmented hessian ah_level shift = 0
augmented hessian ah_start_tol = 2.5
augmented hessian ah_start_cycle = 3
augmented hessian ah_grad_trust_region = 3
kf_trust_region = 3
kf_interval = 4
ci_response_space = 4
ci_grad_trust_region = 3
with_dep4 0
natorb = False
canonicalization = True
sorting_mo_energy = False
chkfile = ./scratch/126140/tmp0QCQEn
max_memory 4000 MB (current use 259 MB)
internal_rotation = False

******** SHCI flags ********
executable             = /home/bamu3429/softwares/dice/Dice
mpiprefix              = srun -n20
scratchDirectory       = ./scratch/126140
integralFile           = ./FCIDUMP
configFile             = ./input.dat
outputFile             = ./output.dat
maxIter                = 6
sweep_iter             = []
sweep_epsilon          = []
nPTiter                = 0
Stochastic             = True
fullrestart            = False
restart                = False
num_thrds              = 12
memory                 = None

CASCI E = -103.517517230503  S^2 = 8.7500000
Set conv_tol_grad to 0.000316228
macro iter 1 (1 JK  1 micro), CASSCF E = -103.517517230503  dE = 0  S^2 = 8.7500000
               |grad[o]|=8.84e-07  |grad[c]|= None  |ddm|=    0
1-step CASSCF converged in 1 macro (1 JK 1 micro) steps
CASSCF canonicalization
CASSCF energy = -103.517517230503


--------------------------------------------------
                 ICMPSPT CALCULATION              
--------------------------------------------------

Perturbation type: MRLCC
With fully internally contracted scheme
With third order correction

Preparing necessary RDMs
......production of RDMs took       2.07 sec
Reading binary 4RDM from DICE
......reading the RDM took          1.02 sec

(GOOD) Trace 4RDM:    840.0 =    7*    6*    5*    4
(GOOD) Trace 3RDM:    210.0 =    7*    6*    5
(GOOD) Trace 2RDM:     42.0 =    7*    6
(GOOD) Trace 1RDM:      7.0 =    7

Producing the integrals
......production of INT took      86.71 sec

Energy_core =  -88.44893278
Energy      = -103.51751723

WARNING: Have to use natural orbitals from CAASCF
         offdiagonal elements:    0.82782430

Basic ingredients written to int/
......savings of INGREDIENTS took      17.44 sec

Second-order:
perturber CCVV --        -0.099036736
perturber CCAV --        -0.044943257
perturber ACVV --        -0.159857720
perturber CCAA --        -0.028354718
perturber AAVV --        -0.140099274
perturber CAAV --        -0.116574186
perturber AAAV --        -0.004429154
perturber AAAC --        -0.000000000
Total:                   -0.593295045

Third-order:              0.001500534

Total PT       --        -0.591794510

