 &FCI NORB=6 ,NELEC=6 ,MS2=6,
  ORBSYM=1,1,1,1,1,1,
  ISYM=1,
 &END
  8.689861439690e-01    1  1  1  1
  3.916748912553e-02    2  1  2  1
  7.906511657179e-01    2  2  1  1
  8.689861439690e-01    2  2  2  2
  5.727977958705e-05    3  1  2  1
 -4.620355468173e-04    3  1  2  2
  3.003373623031e-02    3  1  3  1
 -1.145595591746e-04    3  2  1  1
  2.310177734087e-04    3  2  2  1
  1.043535367817e-03    3  2  3  1
  2.764795374153e-02    3  2  3  2
  8.089186715083e-01    3  3  1  1
 -2.087070735634e-03    3  3  2  1
  8.136902364859e-01    3  3  2  2
  8.689861439689e-01    3  3  3  3
  2.462334094206e-04    4  1  2  1
 -1.823265392997e-04    4  1  2  2
  6.532445295790e-03    4  1  3  1
  8.735589052705e-04    4  1  3  2
  2.675006655704e-03    4  1  3  3
  2.301702454590e-02    4  1  4  1
 -4.924668188415e-04    4  2  1  1
  9.116326965000e-05    4  2  2  1
  1.260232327179e-03    4  2  3  1
 -6.496771111303e-03    4  2  3  2
 -1.489955301034e-02    4  2  3  3
 -1.484535957565e-03    4  2  4  1
  3.520260235474e-02    4  2  4  2
 -1.306489059158e-02    4  3  1  1
 -2.133791232450e-03    4  3  2  1
  1.299354222261e-02    4  3  2  2
 -1.337503327852e-03    4  3  3  1
  7.449776505170e-03    4  3  3  2
 -7.852248636396e-04    4  3  4  1
 -4.395524097332e-03    4  3  4  2
  3.422091951502e-02    4  3  4  3
  8.229520948771e-01    4  4  1  1
  2.969071915131e-03    4  4  2  1
  7.985809392595e-01    4  4  2  2
  1.570449727279e-03    4  4  3  1
  8.791048194664e-03    4  4  3  2
  8.005443049389e-01    4  4  3  3
  8.689861439689e-01    4  4  4  4
 -1.793873652286e-04    5  1  2  1
  4.607370606743e-04    5  1  2  2
  6.926209958269e-04    5  1  3  1
 -7.618125689876e-03    5  1  3  2
  1.289060139184e-02    5  1  3  3
  1.914068078145e-03    5  1  4  1
 -3.745263762744e-03    5  1  4  2
 -7.696524783977e-03    5  1  4  3
 -1.335133845252e-02    5  1  4  4
  3.397490044028e-02    5  1  5  1
  3.587747304572e-04    5  2  1  1
 -2.303685303373e-04    5  2  2  1
 -7.673128309313e-03    5  2  3  1
 -8.502107123431e-04    5  2  3  2
  1.217476641520e-03    5  2  3  3
 -4.313719274023e-03    5  2  4  1
 -1.698185281634e-03    5  2  4  2
  4.965237299565e-04    5  2  4  3
 -1.576251371977e-03    5  2  4  4
  4.410005897479e-04    5  2  5  1
  2.417510512021e-02    5  2  5  2
 -1.385241991654e-03    5  3  1  1
  1.529125399919e-02    5  3  2  1
  1.700421424686e-03    5  3  2  2
 -6.445300695921e-03    5  3  3  1
 -6.087383207598e-04    5  3  3  2
 -3.410053912779e-03    5  3  4  1
 -1.560377347705e-03    5  3  4  2
 -2.158827965109e-04    5  3  4  3
 -3.151794330324e-04    5  3  4  4
  5.542070902309e-04    5  3  5  1
  4.338244317745e-03    5  3  5  2
  3.429054085516e-02    5  3  5  3
 -3.828136156291e-03    5  4  1  1
  8.058983036768e-03    5  4  2  1
  3.396370563269e-03    5  4  2  2
  1.110657869676e-02    5  4  3  1
  1.063853617749e-03    5  4  3  2
  4.317655930217e-04    5  4  3  3
  6.675669226258e-03    5  4  4  1
  7.881256859884e-04    5  4  4  2
  1.575897165161e-04    5  4  4  3
  1.246340058202e-03    5  4  5  1
 -7.696009914591e-03    5  4  5  2
 -3.567418448810e-05    5  4  5  3
  3.375260392636e-02    5  4  5  4
  8.010363430884e-01    5  5  1  1
 -8.820011794957e-04    5  5  2  1
  8.206359337285e-01    5  5  2  2
 -1.108414180462e-03    5  5  3  1
 -8.676488635492e-03    5  5  3  2
  8.004050622586e-01    5  5  3  3
 -2.492680116403e-03    5  5  4  1
  1.539201982918e-02    5  5  4  2
  7.134836897453e-05    5  5  4  3
  8.014809361162e-01    5  5  4  4
  8.689861439689e-01    5  5  5  5
  3.580770535197e-04    6  1  1  1
 -1.293300642860e-03    6  1  2  1
 -3.562138560896e-04    6  1  2  2
 -2.397334969995e-05    6  1  3  1
 -3.100425656011e-05    6  1  3  2
  1.133546987719e-04    6  1  3  3
 -2.560819685098e-05    6  1  4  1
 -1.996532724233e-05    6  1  4  2
 -1.038337364201e-04    6  1  4  3
 -7.923963989639e-07    6  1  4  4
  3.197823291727e-05    6  1  5  1
  3.612214972214e-05    6  1  5  2
 -9.836385120682e-04    6  1  5  3
 -5.991887434655e-04    6  1  5  4
 -1.144254997993e-04    6  1  5  5
  9.540920713661e-03    6  1  6  1
 -1.293300642863e-03    6  2  1  1
 -3.562138560902e-04    6  2  2  1
  1.294065188635e-03    6  2  2  2
 -3.100425656008e-05    6  2  3  1
 -2.495167386812e-05    6  2  3  2
  1.865507180903e-04    6  2  3  3
 -1.996532724232e-05    6  2  4  1
  3.117648629536e-05    6  2  4  2
  8.480152379900e-04    6  2  4  3
 -8.514015880667e-04    6  2  4  4
  3.612214972211e-05    6  2  5  1
  3.354796261707e-06    6  2  5  2
 -1.604973772331e-04    6  2  5  3
  7.355968958640e-05    6  2  5  4
  6.640863241872e-04    6  2  5  5
  9.540920713661e-03    6  2  6  2
 -2.397334969994e-05    6  3  1  1
 -3.100425656011e-05    6  3  2  1
 -2.495167386809e-05    6  3  2  2
  1.133546987712e-04    6  3  3  1
  1.865507180939e-04    6  3  3  2
 -1.286503131817e-03    6  3  3  3
 -1.038337364202e-04    6  3  4  1
  8.480152379905e-04    6  3  4  2
  2.577991836861e-04    6  3  4  3
  7.518294097964e-04    6  3  4  4
 -9.836385120683e-04    6  3  5  1
 -1.604973772333e-04    6  3  5  2
 -1.841131507160e-04    6  3  5  3
  4.665261866944e-05    6  3  5  4
  5.835987455887e-04    6  3  5  5
  9.540920713663e-03    6  3  6  3
 -2.560819685108e-05    6  4  1  1
 -1.996532724234e-05    6  4  2  1
  3.117648629530e-05    6  4  2  2
 -1.038337364202e-04    6  4  3  1
  8.480152379905e-04    6  4  3  2
  2.577991836862e-04    6  4  3  3
 -7.923963996714e-07    6  4  4  1
 -8.514015880638e-04    6  4  4  2
  7.518294097965e-04    6  4  4  3
  7.087977835681e-04    6  4  4  4
 -5.991887434656e-04    6  4  5  1
  7.355968958639e-05    6  4  5  2
  4.665261866945e-05    6  4  5  3
 -1.028191919325e-04    6  4  5  4
 -9.721652566990e-04    6  4  5  5
  9.540920713663e-03    6  4  6  4
  3.197823291725e-05    6  5  1  1
  3.612214972213e-05    6  5  2  1
  3.354796261657e-06    6  5  2  2
 -9.836385120683e-04    6  5  3  1
 -1.604973772333e-04    6  5  3  2
 -1.841131507160e-04    6  5  3  3
 -5.991887434656e-04    6  5  4  1
  7.355968958639e-05    6  5  4  2
  4.665261866943e-05    6  5  4  3
 -1.028191919326e-04    6  5  4  4
 -1.144254998000e-04    6  5  5  1
  6.640863241910e-04    6  5  5  2
  5.835987455885e-04    6  5  5  3
 -9.721652566987e-04    6  5  5  4
  2.515993134695e-04    6  5  5  5
  9.540920713663e-03    6  5  6  5
  3.925965431894e-01    6  6  1  1
  3.925965431894e-01    6  6  2  2
  3.925965431894e-01    6  6  3  3
  3.925965431894e-01    6  6  4  4
  3.925965431894e-01    6  6  5  5
  3.119332712324e-01    6  6  6  6
 -4.407789556749e+00    1  1  0  0
 -4.407789556749e+00    2  2  0  0
 -4.407789556749e+00    3  3  0  0
 -4.407789556749e+00    4  4  0  0
 -4.407789556749e+00    5  5  0  0
 -2.465883539457e+00    6  6  0  0
    -88.452140712870   0  0  0  0
