 &FCI NORB=9 ,NELEC=10 ,MS2=4,
  ORBSYM=1,1,1,1,1,1,1,1,1,
  ISYM=1,
 &END
  6.292115071451e-01    1  1  1  1
 -2.032352450797e-11    2  1  1  1
  2.924059291934e-02    2  1  2  1
  5.861368079669e-01    2  2  1  1
  3.872479159652e-11    2  2  2  1
  6.782259922442e-01    2  2  2  2
 -7.374837570187e-11    3  1  1  1
 -7.514492429563e-11    3  1  2  2
  2.877191376913e-02    3  1  3  1
 -5.899530454433e-12    3  2  2  1
  3.186079789730e-12    3  2  3  1
  3.006711064996e-02    3  2  3  2
  5.807091514724e-01    3  3  1  1
  9.001676103088e-12    3  3  2  1
  6.023057439524e-01    3  3  2  2
 -8.256318290933e-11    3  3  3  1
  6.494914466905e-01    3  3  3  3
 -4.911383164983e-03    4  1  1  1
 -2.554942611639e-11    4  1  2  1
 -1.839490268735e-02    4  1  2  2
  1.020709503185e-11    4  1  3  1
 -1.345530626853e-02    4  1  3  3
  2.059893625011e-02    4  1  4  1
  2.704952730733e-10    4  2  1  1
 -2.299499335629e-03    4  2  2  1
  4.811077764826e-10    4  2  2  2
  4.121185019240e-12    4  2  3  2
  3.706595147707e-10    4  2  3  3
 -1.205050574632e-10    4  2  4  1
  2.334080774637e-03    4  2  4  2
  6.345744348426e-11    4  3  1  1
  6.456212512737e-11    4  3  2  2
 -4.698606805650e-03    4  3  3  1
  4.440651241407e-11    4  3  3  2
  7.257666272232e-11    4  3  3  3
  2.523246584038e-12    4  3  4  1
  4.749586281964e-03    4  3  4  3
  3.848718049944e-01    4  4  1  1
 -2.263348907838e-10    4  4  2  1
  3.130042979581e-01    4  4  2  2
  2.314424244151e-12    4  4  3  1
  3.399143209340e-01    4  4  3  3
  6.655126221680e-02    4  4  4  1
 -4.054018718714e-10    4  4  4  2
  4.118886601085e-11    4  4  4  3
  6.433323188226e-01    4  4  4  4
 -1.262012603750e-11    5  1  2  1
 -1.303896813264e-11    5  1  3  1
 -1.149645881032e-04    5  1  3  2
  6.561345615713e-12    5  1  4  2
  7.276929472539e-12    5  1  4  3
  8.336389963629e-03    5  1  5  1
 -1.256849515934e-10    5  2  1  1
 -2.501311534187e-10    5  2  2  2
 -1.544760633968e-03    5  2  3  1
  1.705435698978e-12    5  2  3  2
 -1.794514945268e-10    5  2  3  3
  6.198875822112e-11    5  2  4  1
  1.769966422344e-03    5  2  4  3
  2.449343932040e-10    5  2  4  4
  7.647141216820e-12    5  2  5  1
  3.112535903813e-03    5  2  5  2
 -7.826248940440e-11    5  3  1  1
 -1.727566407052e-03    5  3  2  1
 -8.525035360859e-11    5  3  2  2
 -1.783798686052e-11    5  3  3  2
 -1.107370908162e-10    5  3  3  3
  2.789838066047e-11    5  3  4  1
 -8.700831224001e-04    5  3  4  2
  1.183007053319e-10    5  3  4  4
  1.780144865115e-12    5  3  5  1
  4.374380991990e-03    5  3  5  3
  1.034007336380e-11    5  4  2  1
  7.553310432812e-12    5  4  3  1
  1.673435423595e-03    5  4  3  2
  1.538701924537e-11    5  4  4  2
  6.530744937757e-12    5  4  4  3
  5.733304995724e-03    5  4  5  1
 -9.489926315058e-12    5  4  5  2
 -4.669185435836e-12    5  4  5  3
  1.883992300533e-02    5  4  5  4
  4.033477754287e-01    5  5  1  1
 -2.146913732747e-10    5  5  2  1
  3.264384439118e-01    5  5  2  2
 -8.147948198530e-12    5  5  3  1
  3.507627646449e-01    5  5  3  3
  6.677005875087e-02    5  5  4  1
 -4.311486881973e-10    5  5  4  2
  5.729121731902e-11    5  5  4  3
  6.690294477987e-01    5  5  4  4
  3.204115266501e-10    5  5  5  2
  1.487004161033e-10    5  5  5  3
  7.786883237742e-01    5  5  5  5
  1.442877286049e-02    6  1  1  1
 -1.296619357108e-10    6  1  2  1
 -2.817012039566e-04    6  1  2  2
  1.389600380003e-11    6  1  3  1
  4.266841761744e-03    6  1  3  3
  1.078235481622e-02    6  1  4  1
 -4.231657366996e-11    6  1  4  2
  2.158531586729e-12    6  1  4  3
  5.847441924193e-02    6  1  4  4
  5.536892152759e-11    6  1  5  2
 -2.027082133156e-11    6  1  5  3
  7.204199132460e-02    6  1  5  5
  1.830592822232e-02    6  1  6  1
 -8.343714630070e-10    6  2  1  1
 -2.893345631014e-03    6  2  2  1
 -1.768864911719e-09    6  2  2  2
  1.416311104794e-11    6  2  3  2
 -1.272081949663e-09    6  2  3  3
  4.512839001481e-10    6  2  4  1
 -4.089769795383e-04    6  2  4  2
  1.863918006788e-09    6  2  4  4
  1.386690910319e-12    6  2  5  1
  1.488409760813e-03    6  2  5  3
 -2.596600997925e-12    6  2  5  4
  2.229076602962e-09    6  2  5  5
  4.314338669619e-10    6  2  6  1
  2.985122391331e-03    6  2  6  2
  1.411618776422e-10    6  3  1  1
  1.624742982048e-10    6  3  2  2
 -8.230300355570e-04    6  3  3  1
 -1.319149525306e-10    6  3  3  2
  1.786675022642e-10    6  3  3  3
 -1.489342006399e-11    6  3  4  1
 -5.633753031506e-04    6  3  4  3
 -8.763325497293e-12    6  3  4  4
  5.414113563771e-11    6  3  5  1
 -5.537054593380e-04    6  3  5  2
  6.052968442515e-11    6  3  5  4
 -2.700277358933e-11    6  3  5  5
 -7.143303713849e-12    6  3  6  1
  2.571223115411e-03    6  3  6  3
 -3.751960617952e-02    6  4  1  1
  1.218983282996e-10    6  4  2  1
 -2.493486030800e-02    6  4  2  2
 -2.426797379752e-12    6  4  3  1
 -2.813707222827e-02    6  4  3  3
 -1.146438295175e-02    6  4  4  1
  2.146598517941e-10    6  4  4  2
 -1.243114422861e-11    6  4  4  3
 -1.017997078512e-01    6  4  4  4
 -5.913721233473e-11    6  4  5  2
 -1.429738457689e-10    6  4  5  3
 -1.201668241558e-01    6  4  5  5
 -1.501828295572e-02    6  4  6  1
 -5.317790844799e-10    6  4  6  2
  2.644889573839e-12    6  4  6  3
  4.346827461651e-02    6  4  6  4
  1.710829152352e-12    6  5  2  1
 -6.819109225441e-11    6  5  3  1
  2.057168497627e-03    6  5  3  2
 -3.367485597933e-12    6  5  4  2
  7.766227364254e-11    6  5  4  3
  6.132898077335e-03    6  5  5  1
  1.619838620450e-10    6  5  5  2
  6.016975926619e-12    6  5  5  3
  2.097661792526e-03    6  5  5  4
  1.092188343221e-11    6  5  6  2
  1.770929912487e-02    6  5  6  5
  3.351981871971e-01    6  6  1  1
 -1.537510132528e-10    6  6  2  1
  2.831339752698e-01    6  6  2  2
  2.342553238722e-12    6  6  3  1
  2.950866415360e-01    6  6  3  3
  3.941257828592e-02    6  6  4  1
 -4.084315578871e-10    6  6  4  2
  2.614742153834e-11    6  6  4  3
  4.997566118698e-01    6  6  4  4
  1.982788272895e-10    6  6  5  2
  1.826355790148e-10    6  6  5  3
  5.521513052151e-01    6  6  5  5
  5.191522380585e-02    6  6  6  1
  1.700492329149e-09    6  6  6  2
 -2.278814398870e-11    6  6  6  3
 -7.605028903787e-02    6  6  6  4
  4.639741695436e-01    6  6  6  6
 -6.396055716844e-10    7  1  1  1
 -3.538562649840e-03    7  1  2  1
 -3.568457737282e-10    7  1  2  2
 -4.078251263429e-10    7  1  3  3
 -1.793844775181e-10    7  1  4  1
  2.302547149760e-03    7  1  4  2
 -1.210848514588e-09    7  1  4  4
 -1.860875471445e-03    7  1  5  3
 -4.930452803568e-12    7  1  5  4
 -1.515775831531e-09    7  1  5  5
 -1.897615505280e-10    7  1  6  1
 -4.615144726481e-04    7  1  6  2
  4.081502202686e-10    7  1  6  4
 -1.285246371939e-11    7  1  6  5
 -1.107730318193e-09    7  1  6  6
  7.953530376589e-03    7  1  7  1
 -4.089964528239e-02    7  2  1  1
 -3.324117829971e-11    7  2  2  1
 -8.333372310803e-02    7  2  2  2
  2.001306236988e-11    7  2  3  1
 -6.041068248476e-02    7  2  3  3
  2.056147533308e-02    7  2  4  1
 -2.469746926001e-10    7  2  4  2
 -8.331323130063e-12    7  2  4  3
  7.818060298629e-02    7  2  4  4
  1.334308734893e-10    7  2  5  2
  4.034550086603e-11    7  2  5  3
  9.248553174010e-02    7  2  5  5
  1.921114557824e-02    7  2  6  1
  1.017277441640e-09    7  2  6  2
 -4.276001400619e-11    7  2  6  3
 -1.851005998288e-02    7  2  6  4
  6.590706221986e-02    7  2  6  6
 -3.295020759939e-10    7  2  7  1
  4.756330674497e-02    7  2  7  2
  5.875245078938e-12    7  3  2  1
  2.094283085157e-12    7  3  3  1
 -5.788655416522e-03    7  3  3  2
  2.199718311754e-12    7  3  4  2
  8.420547142385e-12    7  3  4  3
  2.032078209456e-03    7  3  5  1
  2.446247566592e-11    7  3  5  2
  1.257050161356e-12    7  3  5  3
  2.293091869158e-03    7  3  5  4
 -5.275075592356e-12    7  3  6  2
  5.860410448548e-11    7  3  6  3
  2.715548566248e-03    7  3  6  5
  1.269446990233e-12    7  3  7  1
  5.005551821775e-03    7  3  7  3
  1.007405352852e-09    7  4  1  1
  4.096761431520e-03    7  4  2  1
  5.423966472089e-10    7  4  2  2
 -5.335479061256e-12    7  4  3  2
  6.992092290456e-10    7  4  3  3
  3.527050120620e-10    7  4  4  1
  5.485492593361e-03    7  4  4  2
  2.779427720998e-09    7  4  4  4
 -6.159324088526e-12    7  4  5  1
 -4.364707416062e-03    7  4  5  3
  1.649923216076e-11    7  4  5  4
  3.261880965284e-09    7  4  5  5
  4.972586232508e-10    7  4  6  1
 -2.207365393297e-03    7  4  6  2
 -4.407336759438e-10    7  4  6  4
 -2.102776698562e-11    7  4  6  5
  1.682811125438e-09    7  4  6  6
  3.580764980574e-03    7  4  7  1
  5.236083298910e-10    7  4  7  2
  7.893511319952e-12    7  4  7  3
  2.768147259338e-02    7  4  7  4
  6.266862506979e-11    7  5  1  1
  8.955897237821e-11    7  5  2  2
 -2.959220164730e-03    7  5  3  1
 -3.104957155030e-11    7  5  3  2
  5.770842701918e-11    7  5  3  3
 -2.002247483532e-11    7  5  4  1
  2.987032604787e-03    7  5  4  3
 -1.018203641148e-10    7  5  4  4
 -1.291381243499e-10    7  5  5  1
  6.333798786901e-03    7  5  5  2
 -4.663784655983e-11    7  5  5  4
 -6.797899979294e-11    7  5  5  5
 -2.917094328320e-03    7  5  6  3
  4.196865801371e-11    7  5  6  4
  2.931583161053e-10    7  5  6  5
 -3.583687342229e-11    7  5  6  6
 -1.736189353331e-11    7  5  7  2
  1.338704561538e-11    7  5  7  3
  2.883631048096e-02    7  5  7  5
  2.443765051875e-09    7  6  1  1
  7.851301865202e-05    7  6  2  1
  1.921459370582e-09    7  6  2  2
 -6.762993250801e-12    7  6  3  2
  1.942549076527e-09    7  6  3  3
  5.255561080998e-10    7  6  4  1
 -1.931193806000e-03    7  6  4  2
  3.393686731089e-09    7  6  4  4
 -1.124275382998e-11    7  6  5  1
  1.796403249030e-03    7  6  5  3
 -1.781171179062e-11    7  6  5  4
  3.901935631436e-09    7  6  5  5
  6.347513207163e-10    7  6  6  1
  2.645507799411e-03    7  6  6  2
 -8.781967457924e-10    7  6  6  4
 -1.058697695785e-12    7  6  6  5
  2.988389087254e-09    7  6  6  6
  1.033428502832e-04    7  6  7  1
  6.686363044109e-10    7  6  7  2
 -1.355521937797e-11    7  6  7  3
 -7.320331753803e-03    7  6  7  4
  1.637480984203e-02    7  6  7  6
  4.306504610107e-01    7  7  1  1
 -2.158632891683e-10    7  7  2  1
  3.600262962392e-01    7  7  2  2
  7.698063992900e-12    7  7  3  1
  3.722366478968e-01    7  7  3  3
  5.942917466953e-02    7  7  4  1
 -3.058067136672e-10    7  7  4  2
  3.435280485864e-11    7  7  4  3
  6.295333185031e-01    7  7  4  4
  2.443575848919e-10    7  7  5  2
  1.008832457388e-11    7  7  5  3
  7.013224390891e-01    7  7  5  5
  7.555562135866e-02    7  7  6  1
  2.086917743005e-09    7  7  6  2
  9.004001557770e-12    7  7  6  3
 -1.026103799330e-01    7  7  6  4
  5.446989995901e-01    7  7  6  6
 -1.623425717225e-09    7  7  7  1
  9.261824006960e-02    7  7  7  2
  3.192292033962e-09    7  7  7  4
 -5.814770406430e-11    7  7  7  5
  4.341879831760e-09    7  7  7  6
  7.426504622357e-01    7  7  7  7
  1.440571228165e-01    8  1  1  1
  1.163300132397e-10    8  1  2  1
  1.665417280423e-01    8  1  2  2
 -3.366926985757e-11    8  1  3  1
  1.509776863197e-01    8  1  3  3
 -3.860002902766e-02    8  1  4  1
  3.973850049695e-10    8  1  4  2
  1.632335053453e-11    8  1  4  3
 -1.055510673714e-01    8  1  4  4
 -2.127088486036e-10    8  1  5  2
 -1.077257724865e-10    8  1  5  3
 -1.222031849552e-01    8  1  5  5
 -3.050313096456e-02    8  1  6  1
 -1.586515129414e-09    8  1  6  2
  8.891624826426e-11    8  1  6  3
  2.293396700830e-02    8  1  6  4
 -8.746800241769e-02    8  1  6  6
  4.484092087787e-10    8  1  7  1
 -7.106569580192e-02    8  1  7  2
 -6.606348386101e-10    8  1  7  4
  4.475950662812e-11    8  1  7  5
 -6.066426285488e-10    8  1  7  6
 -1.083889632105e-01    8  1  7  7
  1.546846378114e-01    8  1  8  1
 -4.604876880924e-11    8  2  1  1
  1.421042455092e-02    8  2  2  1
 -1.860512399852e-10    8  2  2  2
  9.659827765642e-12    8  2  3  2
 -1.246488440891e-10    8  2  3  3
  1.118938752411e-10    8  2  4  1
 -1.521970286081e-03    8  2  4  2
  3.030087665340e-10    8  2  4  4
 -1.279434471247e-11    8  2  5  1
 -7.823622307703e-04    8  2  5  3
 -1.930886047427e-12    8  2  5  4
  3.253250527368e-10    8  2  5  5
  4.741634752837e-12    8  2  6  1
 -2.298310600624e-03    8  2  6  2
 -5.565457629177e-11    8  2  6  4
 -1.902833464471e-12    8  2  6  5
  2.345157893618e-10    8  2  6  6
 -3.176285463579e-03    8  2  7  1
  1.705665838578e-10    8  2  7  2
 -2.503671119178e-12    8  2  7  3
 -4.762215118282e-04    8  2  7  4
 -2.646238382113e-04    8  2  7  6
  3.912268536457e-10    8  2  7  7
 -2.407333929296e-10    8  2  8  1
  1.257188887661e-02    8  2  8  2
  1.070491894016e-10    8  3  1  1
  1.390914429226e-10    8  3  2  2
  1.291272877720e-02    8  3  3  1
 -9.779209464630e-12    8  3  3  2
  1.477651143531e-10    8  3  3  3
 -1.608779800157e-11    8  3  4  1
 -2.298107566326e-03    8  3  4  3
 -2.901060712440e-11    8  3  4  4
 -1.076585390189e-11    8  3  5  1
 -4.240269158366e-04    8  3  5  2
 -2.095978613658e-11    8  3  5  5
 -2.264683793155e-12    8  3  6  1
 -1.663125955735e-03    8  3  6  3
  5.709141430943e-11    8  3  6  5
 -2.842238834641e-11    8  3  6  6
 -4.043406290151e-11    8  3  7  2
  2.145244155888e-11    8  3  7  3
  2.154839981883e-03    8  3  7  5
 -3.015880518622e-11    8  3  7  7
  8.894863081551e-11    8  3  8  1
  1.241486161740e-02    8  3  8  3
 -6.701912241583e-02    8  4  1  1
  8.730073569352e-11    8  4  2  1
 -5.097012947211e-02    8  4  2  2
  6.956601677533e-12    8  4  3  1
 -5.444526887548e-02    8  4  3  3
 -1.816854140623e-02    8  4  4  1
  3.473463524155e-11    8  4  4  2
 -1.571083379207e-11    8  4  4  3
 -7.583638235018e-02    8  4  4  4
 -1.746051679932e-11    8  4  5  2
 -1.162368571069e-11    8  4  5  3
 -7.550041848536e-02    8  4  5  5
 -9.686570405958e-03    8  4  6  1
 -1.332438677266e-10    8  4  6  2
 -1.733972974135e-11    8  4  6  3
  1.140694430832e-02    8  4  6  4
 -4.239901858976e-02    8  4  6  6
  2.265048518508e-10    8  4  7  1
 -5.759356173093e-03    8  4  7  2
 -3.215957822955e-10    8  4  7  4
 -7.146191037206e-12    8  4  7  5
 -9.609249341383e-10    8  4  7  6
 -7.938241007465e-02    8  4  7  7
  2.164672595233e-03    8  4  8  1
 -5.032559087043e-11    8  4  8  2
 -8.241459238367e-12    8  4  8  3
  3.545601230402e-02    8  4  8  4
 -1.873058905420e-11    8  5  2  1
 -1.292149590539e-11    8  5  3  1
 -8.719600369143e-04    8  5  3  2
 -2.820297445365e-12    8  5  4  2
  1.019809452931e-12    8  5  4  3
 -1.133790993394e-02    8  5  5  1
 -2.075930754163e-12    8  5  5  2
 -3.881859598763e-12    8  5  5  3
 -6.304498767933e-03    8  5  5  4
 -2.135967428296e-12    8  5  6  2
 -7.460200172255e-11    8  5  6  3
 -8.755894700250e-03    8  5  6  5
  1.205970337080e-11    8  5  7  1
 -2.729899785690e-03    8  5  7  3
  2.203644831382e-10    8  5  7  5
  1.605298077751e-11    8  5  7  6
  2.795515965676e-12    8  5  8  3
  1.717451170667e-02    8  5  8  5
 -8.558849698846e-02    8  6  1  1
 -6.661708114269e-11    8  6  2  1
 -6.267734544255e-02    8  6  2  2
  1.306986379139e-11    8  6  3  1
 -6.642816775180e-02    8  6  3  3
 -1.478959857835e-02    8  6  4  1
  6.162737101842e-11    8  6  4  2
 -1.947824987599e-11    8  6  4  3
 -1.170247717938e-01    8  6  4  4
 -5.938160871401e-11    8  6  5  2
  2.077221186692e-11    8  6  5  3
 -1.412220125914e-01    8  6  5  5
 -2.926001139597e-02    8  6  6  1
 -4.958419410675e-10    8  6  6  2
 -1.681780613614e-11    8  6  6  3
  3.222237478908e-02    8  6  6  4
 -9.643385625515e-02    8  6  6  6
  5.301466791236e-10    8  6  7  1
 -2.018364390674e-02    8  6  7  2
 -1.044102726555e-09    8  6  7  4
 -1.013278751262e-11    8  6  7  5
 -1.376002774287e-09    8  6  7  6
 -1.500669226401e-01    8  6  7  7
  2.017592418300e-02    8  6  8  1
 -9.705446628460e-11    8  6  8  2
 -5.037152497455e-12    8  6  8  3
  2.759266431500e-02    8  6  8  4
  6.284554928928e-02    8  6  8  6
  1.852053055268e-09    8  7  1  1
 -6.331917927031e-03    8  7  2  1
  1.311762430538e-09    8  7  2  2
 -1.075598374836e-12    8  7  3  2
  1.390886364746e-09    8  7  3  3
  3.927361425821e-10    8  7  4  1
 -9.091335590221e-04    8  7  4  2
  2.974459784994e-09    8  7  4  4
  1.264993913233e-11    8  7  5  1
  1.698607675995e-03    8  7  5  3
 -1.977637842012e-12    8  7  5  4
  3.606678372732e-09    8  7  5  5
  6.109770126211e-10    8  7  6  1
 -1.723518099464e-04    8  7  6  2
 -9.989945452760e-10    8  7  6  4
  1.781791690121e-11    8  7  6  5
  2.505773327872e-09    8  7  6  6
 -5.482995909165e-03    8  7  7  1
  6.308301686439e-10    8  7  7  2
 -2.808580088496e-12    8  7  7  3
 -6.887492757451e-03    8  7  7  4
 -8.698816305493e-06    8  7  7  6
  3.827761724911e-09    8  7  7  7
 -7.245745969202e-10    8  7  8  1
 -5.432726854264e-04    8  7  8  2
 -6.637518500885e-10    8  7  8  4
 -6.915172602061e-12    8  7  8  5
 -1.206957524051e-09    8  7  8  6
  1.344512686313e-02    8  7  8  7
  4.683652583561e-01    8  8  1  1
 -1.789637021328e-10    8  8  2  1
  4.082080090883e-01    8  8  2  2
 -1.026682287519e-11    8  8  3  1
  4.180914763827e-01    8  8  3  3
  3.002715863428e-02    8  8  4  1
 -1.282305535157e-10    8  8  4  2
  3.970715117612e-11    8  8  4  3
  4.866555802728e-01    8  8  4  4
  8.602216866502e-11    8  8  5  2
  3.881456959367e-11    8  8  5  3
  5.208252806136e-01    8  8  5  5
  4.167219575203e-02    8  8  6  1
  7.346599865408e-10    8  8  6  2
  4.303204871140e-11    8  8  6  3
 -5.757915249999e-02    8  8  6  4
  4.243099613452e-01    8  8  6  6
 -1.055235296857e-09    8  8  7  1
  2.916799080158e-02    8  8  7  2
  1.566246218810e-09    8  8  7  4
  2.368584196528e-11    8  8  7  5
  3.004356664210e-09    8  8  7  6
  5.380025789301e-01    8  8  7  7
 -9.049682204408e-03    8  8  8  1
  1.746537163989e-10    8  8  8  2
  2.420073778818e-11    8  8  8  3
 -6.686454650021e-02    8  8  8  4
 -1.035403785126e-01    8  8  8  6
  2.558540016742e-09    8  8  8  7
  4.873430061236e-01    8  8  8  8
 -3.286400048274e-11    9  1  1  1
 -3.465479017580e-11    9  1  2  2
  7.655581600162e-03    9  1  3  1
  1.335833151357e-11    9  1  3  2
 -3.526106747374e-11    9  1  3  3
  8.511657354518e-12    9  1  4  1
 -1.068605165081e-04    9  1  4  3
  1.872433256041e-11    9  1  4  4
  1.663257893404e-03    9  1  5  2
 -1.713147908533e-12    9  1  5  4
  3.127881472459e-11    9  1  5  5
  9.655299573530e-12    9  1  6  1
 -2.054870118569e-03    9  1  6  3
 -4.599091818868e-12    9  1  6  4
  5.547278103045e-11    9  1  6  5
  1.536951038073e-11    9  1  6  6
  1.182035867424e-11    9  1  7  2
  2.955183439146e-11    9  1  7  3
  2.269816757587e-03    9  1  7  5
  1.177957780546e-11    9  1  7  7
 -2.693839564145e-11    9  1  8  1
  7.582555200099e-03    9  1  8  3
  2.166324670804e-12    9  1  8  5
 -1.920767649209e-12    9  1  8  6
  3.164204472420e-12    9  1  8  8
  1.100421947141e-02    9  1  9  1
 -1.935898636566e-12    9  2  2  1
  7.095817615369e-12    9  2  3  1
  1.200767114484e-02    9  2  3  2
  1.584440983202e-12    9  2  4  2
  7.880412907995e-12    9  2  4  3
 -1.257358897409e-03    9  2  5  1
 -2.936964513357e-11    9  2  5  2
 -1.612722495729e-11    9  2  5  3
 -1.642824331187e-03    9  2  5  4
  4.083407191498e-12    9  2  6  2
 -1.158848073765e-10    9  2  6  3
 -1.937406613285e-03    9  2  6  5
  3.455780594396e-12    9  2  7  1
 -5.629416230953e-03    9  2  7  3
  6.207168875671e-12    9  2  7  4
  1.039983805121e-11    9  2  7  5
  3.724157130119e-12    9  2  8  2
 -9.471014831667e-12    9  2  8  3
  1.835037977812e-03    9  2  8  5
 -6.033643805122e-12    9  2  8  7
 -2.558352010805e-11    9  2  9  1
  8.243165062194e-03    9  2  9  2
  8.868927983533e-02    9  3  1  1
  1.097870695882e-10    9  3  2  1
  1.318688209328e-01    9  3  2  2
 -3.775516551757e-11    9  3  3  1
  1.384546585630e-01    9  3  3  3
 -3.487207345153e-02    9  3  4  1
  3.406104024207e-10    9  3  4  2
  1.450277579577e-11    9  3  4  3
 -1.157753865034e-01    9  3  4  4
 -1.934784897417e-10    9  3  5  2
 -1.008915429997e-10    9  3  5  3
 -1.295279793132e-01    9  3  5  5
 -2.641524446305e-02    9  3  6  1
 -1.445877934637e-09    9  3  6  2
  8.307903632837e-11    9  3  6  3
  2.514168228243e-02    9  3  6  4
 -8.524590817849e-02    9  3  6  6
  3.901764359744e-10    9  3  7  1
 -6.461056079763e-02    9  3  7  2
 -7.216117759381e-10    9  3  7  4
  5.265997045486e-11    9  3  7  5
 -7.080595805912e-10    9  3  7  6
 -1.108642359817e-01    9  3  7  7
  1.176237015326e-01    9  3  8  1
 -2.127291478200e-10    9  3  8  2
  7.845887763765e-11    9  3  8  3
  9.011974178725e-03    9  3  8  4
  2.286798507299e-02    9  3  8  6
 -7.228238918996e-10    9  3  8  7
 -2.500361416123e-02    9  3  8  8
 -2.581119615941e-11    9  3  9  1
  1.246516223645e-01    9  3  9  3
  2.650735283774e-11    9  4  1  1
  2.379895084464e-11    9  4  2  2
  3.349033785569e-04    9  4  3  1
  1.193549558356e-11    9  4  3  2
  2.600234938442e-11    9  4  3  3
  1.459648814411e-12    9  4  4  1
 -6.809563126559e-03    9  4  4  3
  9.281893037038e-12    9  4  4  4
 -1.537139009799e-12    9  4  5  1
 -2.037795013245e-03    9  4  5  2
  4.272166411151e-12    9  4  5  4
 -2.023439251223e-11    9  4  5  5
  2.404693526331e-03    9  4  6  3
 -1.865598899479e-12    9  4  6  4
 -1.774868041935e-10    9  4  6  5
  5.885102994600e-12    9  4  6  6
 -1.461103212255e-12    9  4  7  2
 -6.188379474765e-11    9  4  7  3
 -7.006222803569e-03    9  4  7  5
  4.027016387339e-11    9  4  7  7
  9.003661772056e-12    9  4  8  1
 -1.572351039165e-03    9  4  8  3
 -7.269044825667e-12    9  4  8  4
 -8.097409280889e-12    9  4  8  5
 -6.387155111168e-12    9  4  8  6
  1.693421564439e-11    9  4  8  8
 -6.341689664588e-04    9  4  9  1
  1.443103356244e-11    9  4  9  2
  9.846260303802e-12    9  4  9  3
  1.677361736287e-02    9  4  9  4
 -2.222373215161e-11    9  5  1  1
  2.900462467430e-03    9  5  2  1
 -8.586397582476e-11    9  5  2  2
 -1.952135907438e-11    9  5  3  2
 -5.761549238371e-11    9  5  3  3
  8.107547852373e-12    9  5  4  1
  2.410450637753e-03    9  5  4  2
  4.206673999588e-12    9  5  4  4
 -6.588804500216e-12    9  5  5  1
 -9.479552579970e-03    9  5  5  3
  1.333578788315e-11    9  5  5  4
  1.219668626657e-11    9  5  5  5
  6.020746308823e-11    9  5  6  1
 -1.841196884511e-03    9  5  6  2
  3.135877460211e-10    9  5  6  4
 -2.523928194266e-11    9  5  6  5
 -2.390790316507e-10    9  5  6  6
  2.336411065425e-03    9  5  7  1
  1.766114792013e-11    9  5  7  2
  9.504342028094e-12    9  5  7  3
  1.220821753981e-02    9  5  7  4
 -4.810217137286e-03    9  5  7  6
  2.700410245109e-10    9  5  7  7
 -2.129917839601e-11    9  5  8  1
 -2.836447970576e-04    9  5  8  2
  1.582186679506e-11    9  5  8  4
  4.770183654456e-12    9  5  8  5
 -1.235474054530e-10    9  5  8  6
 -4.636137206345e-03    9  5  8  7
 -2.684995277134e-11    9  5  8  8
  1.117370221734e-11    9  5  9  2
 -2.295910870697e-11    9  5  9  3
  2.533510207736e-02    9  5  9  5
  5.821550619678e-11    9  6  1  1
  6.773171414119e-11    9  6  2  2
 -3.368436574056e-03    9  6  3  1
 -1.493183037304e-10    9  6  3  2
  7.458547023194e-11    9  6  3  3
 -8.292196440603e-12    9  6  4  1
  3.005844806254e-03    9  6  4  3
 -3.709840160912e-12    9  6  4  4
 -1.647438610966e-10    9  6  5  1
  2.150932437154e-03    9  6  5  2
 -1.632209496381e-10    9  6  5  4
  3.542849723705e-11    9  6  5  5
 -2.491629730118e-12    9  6  6  1
 -5.816399950359e-03    9  6  6  3
  4.292479500886e-11    9  6  6  5
 -2.855177881668e-12    9  6  6  6
 -1.887078429384e-11    9  6  7  2
 -4.189411851377e-11    9  6  7  3
  9.057991653596e-03    9  6  7  5
 -2.715178284487e-11    9  6  7  7
  3.463510289195e-11    9  6  8  1
  1.777925607020e-03    9  6  8  3
 -5.101048057303e-12    9  6  8  4
  2.179731365361e-10    9  6  8  5
 -7.791794246185e-12    9  6  8  6
  2.270834525506e-11    9  6  8  8
  2.808875058349e-03    9  6  9  1
  5.723006914366e-11    9  6  9  2
  3.488678882852e-11    9  6  9  3
 -7.382353809368e-03    9  6  9  4
  1.672486891981e-02    9  6  9  6
 -6.052928109993e-12    9  7  2  1
  4.284548222926e-11    9  7  3  1
 -7.117723939230e-03    9  7  3  2
 -7.070277836963e-12    9  7  4  2
 -7.684026392274e-11    9  7  4  3
 -6.532206588742e-03    9  7  5  1
 -6.616690569534e-11    9  7  5  2
  6.750281582563e-12    9  7  5  3
 -6.341053226282e-03    9  7  5  4
 -1.285596464222e-12    9  7  6  2
 -4.512636003884e-11    9  7  6  3
 -7.471269334967e-03    9  7  6  5
  9.184626441865e-12    9  7  7  1
 -7.386277071092e-03    9  7  7  3
 -1.088514076344e-11    9  7  7  4
 -5.306703758255e-11    9  7  7  5
  2.322745758607e-11    9  7  7  6
 -6.084475979851e-11    9  7  8  3
  8.267519218870e-03    9  7  8  5
 -6.643025832561e-12    9  7  8  7
 -6.327255822190e-11    9  7  9  1
  3.549534635644e-03    9  7  9  2
  1.847424260845e-10    9  7  9  4
 -4.844222822128e-12    9  7  9  5
  2.004777341816e-10    9  7  9  6
  2.450685784676e-02    9  7  9  7
  3.363763616771e-11    9  8  1  1
  4.761522385887e-11    9  8  2  2
  1.168214411723e-02    9  8  3  1
 -2.199580387781e-11    9  8  3  2
  5.341763005623e-11    9  8  3  3
 -6.294608943324e-12    9  8  4  1
 -2.372245223090e-03    9  8  4  3
 -1.719331527073e-11    9  8  4  4
 -8.828197321679e-12    9  8  5  1
 -1.405759742417e-03    9  8  5  2
 -2.899081452045e-12    9  8  5  4
 -5.065196486869e-11    9  8  5  5
 -2.859031707510e-12    9  8  6  1
  1.871541306534e-03    9  8  6  3
  2.494058423072e-12    9  8  6  4
 -1.938087476037e-10    9  8  6  5
 -1.723952314508e-11    9  8  6  6
 -1.796588797645e-11    9  8  7  2
 -5.942441212375e-11    9  8  7  3
 -7.219957387654e-03    9  8  7  5
  8.385240474164e-12    9  8  7  7
  3.676828816295e-11    9  8  8  1
  1.230634484754e-03    9  8  8  3
 -1.299577902298e-12    9  8  8  4
 -6.640369843400e-12    9  8  8  5
  4.455015625365e-12    9  8  8  6
  7.018137829058e-12    9  8  8  8
 -2.204799526634e-03    9  8  9  1
  1.928252284515e-11    9  8  9  2
  3.252243276763e-11    9  8  9  3
  1.647377797028e-03    9  8  9  4
 -8.393313896730e-03    9  8  9  6
  2.129905511726e-10    9  8  9  7
  1.559082882703e-02    9  8  9  8
  4.763550948942e-01    9  9  1  1
 -2.305814869909e-10    9  9  2  1
  4.134887625649e-01    9  9  2  2
 -2.411490462662e-11    9  9  3  1
  4.522733362705e-01    9  9  3  3
  5.657936265685e-02    9  9  4  1
 -2.529235912117e-10    9  9  4  2
  5.761849660523e-11    9  9  4  3
  6.085199459005e-01    9  9  4  4
  1.722255340321e-10    9  9  5  2
  6.978891165016e-11    9  9  5  3
  6.527905835685e-01    9  9  5  5
  5.753628278189e-02    9  9  6  1
  1.328467497913e-09    9  9  6  2
  4.312867444651e-11    9  9  6  3
 -8.847207141175e-02    9  9  6  4
  4.924403575049e-01    9  9  6  6
 -1.298661711412e-09    9  9  7  1
  5.531601414085e-02    9  9  7  2
  2.427746933277e-09    9  9  7  4
 -2.741869761512e-11    9  9  7  5
  3.961935468858e-09    9  9  7  6
  6.444379464040e-01    9  9  7  7
 -5.507712785654e-02    9  9  8  1
  2.776610801253e-10    9  9  8  2
  1.519516727526e-11    9  9  8  3
 -8.979397045756e-02    9  9  8  4
 -1.311513409766e-01    9  9  8  6
  3.248748952670e-09    9  9  8  7
  5.268992119440e-01    9  9  8  8
  9.924680675368e-12    9  9  9  1
 -7.458155524625e-02    9  9  9  3
  1.649373193069e-11    9  9  9  4
 -7.879075604375e-12    9  9  9  5
  2.175151220808e-11    9  9  9  6
 -5.475680100139e-12    9  9  9  8
  6.701253153753e-01    9  9  9  9
 -4.813948849294e+00    1  1  0  0
  9.114304165438e-10    2  1  0  0
 -4.606182510305e+00    2  2  0  0
  3.571795787281e-10    3  1  0  0
 -4.643418251559e+00    3  3  0  0
 -1.849629795914e-01    4  1  0  0
 -2.924013313789e-10    4  2  0  0
 -4.594278328948e-10    4  3  0  0
 -4.282136819303e+00    4  4  0  0
 -1.717741859022e-10    5  2  0  0
  7.930846651291e-11    5  3  0  0
 -4.584932936852e+00    5  5  0  0
 -2.944678566730e-01    6  1  0  0
 -2.742325236697e-09    6  2  0  0
 -7.606747634982e-10    6  3  0  0
  5.119530658989e-01    6  4  0  0
 -3.723811905994e+00    6  6  0  0
  7.466225396205e-09    7  1  0  0
 -8.032062515546e-02    7  2  0  0
 -1.355875785832e-08    7  4  0  0
  3.131704416204e-12    7  5  0  0
 -2.258237704172e-08    7  6  0  0
 -4.601940934983e+00    7  7  0  0
 -2.978755711717e-01    8  1  0  0
 -8.961329281506e-10    8  2  0  0
 -6.404332625738e-10    8  3  0  0
  4.927544186013e-01    8  4  0  0
  7.782226315231e-01    8  6  0  0
 -1.914308050093e-08    8  7  0  0
 -4.059437753130e+00    8  8  0  0
  7.701339053951e-11    9  1  0  0
 -7.662871561317e-02    9  3  0  0
 -1.361089799139e-10    9  4  0  0
  1.649782295206e-10    9  5  0  0
 -2.765811676701e-10    9  6  0  0
 -1.818486062911e-10    9  8  0  0
 -4.665335914013e+00    9  9  0  0
    -77.032736455716   0  0  0  0
