#INFO: **** input file is /projects/bamu3429/BENCHMARK/fresh_atoms/MRPT/monoxides/CrO/mrpt.py ****
import json
from pyscf import gto,scf,mcscf, fci, lo, ci, cc
from pyscf.scf import ROHF, UHF,ROKS
import numpy as np
import pandas as pd

# THIS IS WERE IT STARTS ====================================

df=json.load(open("../../trail.json"))

spins={'ScO':1, 'TiO':2, 'VO':3, 'CrO':4, 'MnO':5, 'FeO':4, 'CuO':1}

nd={'Sc':(1,0), 'Ti':(2,0), 'V':(3,0), 'Cr':(5,0), 'Mn':(5,0), 'Fe':(5,1), 'Cu':(5,4)}

cas={'Sc':3, 'Ti':4, 'V':5, 'Cr':6, 'Mn':7, 'Fe':8, 'Cu':11}

re={'ScO':1.668, 'TiO':1.623, 'VO':1.591, 'CrO':1.621, 'MnO':1.648, 'FeO':1.616, 'CuO':1.725}

datacsv={}
for nm in ['basis','charge','method','molecule','pseudopotential',
           'totalenergy','totalenergy-stocherr','totalenergy-syserr']:
  datacsv[nm]=[]

basis='vdz'
element='Cr'

mol=gto.Mole()
mol.ecp={}
mol.basis={}
for el in [element,'O']:
  mol.ecp[el]=gto.basis.parse_ecp(df[el]['ecp'])
  mol.basis[el]=gto.basis.parse(df[el][basis])
mol.charge=0
mol.spin=spins[element+'O']
mol.build(atom="%s 0. 0. 0.; O 0. 0. %g"%(element,re[element+'O']),verbose=4)

m=ROHF(mol)
m.level_shift=1000.0
dm=m.from_chk("../../../HF/monoxides/"+element+basis+"0.chk")
hf=m.kernel(dm)
m.analyze()

from pyscf.shciscf import shci
mc = shci.SHCISCF(m, 9, 4+cas[element])
#mc.fcisolver.conv_tol = 1e-14
mc.fcisolver.mpiprefix="mpirun -np 28"
mc.fcisolver.num_thrds=12
mc.verbose = 4
cas=mc.kernel()[0]
 
from pyscf.icmpspt import icmpspt
pt=icmpspt.icmpspt(mc,rdmM=500, PTM=1000,\
                          pttype="MRLCC",\
                          third_order=True,\
                          fully_ic=True,\
                          do_dm4=True)

datacsv['basis'].append(basis)
datacsv['charge'].append(0)
datacsv['method'].append('MRPT')
datacsv['molecule'].append(element)
datacsv['pseudopotential'].append('trail')
datacsv['totalenergy'].append(cas+pt)
datacsv['totalenergy-stocherr'].append(0.0)
datacsv['totalenergy-syserr'].append(0.0)
pd.DataFrame(datacsv).to_csv(element+".csv",index=False)

#INFO: ******************** input file end ********************


System: ('Linux', 'bnode0308.rc.int.colorado.edu', '3.10.0-514.41.1.el7.x86_64', '#1 SMP Wed Jan 17 10:26:16 EST 2018', 'x86_64', 'x86_64')  Threads 1
Python 2.7.11 (default, Mar 22 2016, 01:42:54) 
[GCC Intel(R) C++ gcc 4.8 mode]
numpy 1.11.1  scipy 0.17.1
Date: Mon Mar 26 10:32:34 2018
PySCF version 1.4
PySCF path  /projects/bamu3429/softwares/pyscf_uptodate/pyscf
GIT ORIG_HEAD e2292e6edec2b0e0024c21b81de03db1d7bd4121
GIT HEAD      ref: refs/heads/master
GIT master branch  f3591ef22170896a4cdc2aadaa6f5da388ffcadb

[INPUT] VERBOSE 4
[INPUT] num atoms = 2
[INPUT] num electrons = 20
[INPUT] charge = 0
[INPUT] spin (= nelec alpha-beta = 2S) = 4
[INPUT] symmetry False subgroup None
[INPUT]  1 Cr     0.000000000000   0.000000000000   0.000000000000 AA    0.000000000000   0.000000000000   0.000000000000 Bohr
[INPUT]  2 O      0.000000000000   0.000000000000   1.621000000000 AA    0.000000000000   0.000000000000   3.063246047920 Bohr
[INPUT] ---------------- BASIS SET ---------------- 
[INPUT] l, kappa, [nprim/nctr], expnt,             c_1 c_2 ...
[INPUT] Cr
[INPUT] 0    0    [12   /1   ]  41.45590127       0.010332
                                22.20089455       -0.091393
                                12.37022616       0.412444
                                7.15443966        -0.722409
                                3.63012556        0.039693
                                1.88942247        0.321055
                                1.04381355        0.652182
                                0.47307333        0.264443
                                0.22628807        -0.008646
                                0.10750747        0.012188
                                0.05101028        -0.00242
                                0.0242372         0.001733
[INPUT] 0    0    [12   /1   ]  41.45590127       -0.001971
                                22.20089455       0.019152
                                12.37022616       -0.094562
                                7.15443966        0.178991
                                3.63012556        -0.015716
                                1.88942247        -0.084882
                                1.04381355        -0.243744
                                0.47307333        -0.214624
                                0.22628807        0.055092
                                0.10750747        0.415903
                                0.05101028        0.543473
                                0.0242372         0.170131
[INPUT] 0    0    [12   /1   ]  41.45590127       -0.005874
                                22.20089455       0.067618
                                12.37022616       -0.389148
                                7.15443966        0.863039
                                3.63012556        -0.192494
                                1.88942247        -1.243222
                                1.04381355        -0.159486
                                0.47307333        0.70074
                                0.22628807        0.796397
                                0.10750747        0.153618
                                0.05101028        -0.585106
                                0.0242372         -0.29462
[INPUT] 0    0    [1    /1   ]  0.0242372            1
[INPUT] 0    0    [1    /1   ]  0.01151614           1
[INPUT] 1    0    [12   /1   ]  28.88080716       -0.002973
                                13.19380569       0.044202
                                7.25722596        -0.232476
                                4.84342676        0.167654
                                2.76949909        0.179744
                                1.50719356        0.46058
                                0.72516508        0.338218
                                0.36385743        0.097984
                                0.16204617        0.012145
                                0.07447705        -0.000948
                                0.03422994        0.000821
                                0.01573221        -0.00022
[INPUT] 1    0    [12   /1   ]  28.88080716       0.000536
                                13.19380569       -0.009363
                                7.25722596        0.054752
                                4.84342676        -0.042977
                                2.76949909        -0.049244
                                1.50719356        -0.128712
                                0.72516508        -0.11682
                                0.36385743        0.044517
                                0.16204617        0.322192
                                0.07447705        0.482878
                                0.03422994        0.275764
                                0.01573221        0.025472
[INPUT] 1    0    [12   /1   ]  28.88080716       -0.000562
                                13.19380569       0.035351
                                7.25722596        -0.310475
                                4.84342676        0.257585
                                2.76949909        0.754226
                                1.50719356        0.194922
                                0.72516508        -0.904177
                                0.36385743        -0.438274
                                0.16204617        0.529934
                                0.07447705        0.455686
                                0.03422994        0.027191
                                0.01573221        0.005171
[INPUT] 1    0    [1    /1   ]  0.01573221           1
[INPUT] 1    0    [1    /1   ]  0.00723058           1
[INPUT] 2    0    [10   /1   ]  46.50908408       0.000358
                                21.60133229       -0.010512
                                11.03652449       0.11118
                                4.54288797        0.164184
                                2.18180243        0.267436
                                1.04009058        0.310836
                                0.48262909        0.28353
                                0.21570372        0.173079
                                0.10059873        0.057279
                                0.04653409        0.00937
[INPUT] 2    0    [10   /1   ]  46.50908408       0.000574
                                21.60133229       0.006454
                                11.03652449       -0.106748
                                4.54288797        -0.214222
                                2.18180243        -0.409175
                                1.04009058        -0.082468
                                0.48262909        0.284806
                                0.21570372        0.41458
                                0.10059873        0.246257
                                0.04653409        0.05398
[INPUT] 2    0    [1    /1   ]  0.04653409           1
[INPUT] 2    0    [1    /1   ]  0.02152533           1
[INPUT] 3    0    [1    /1   ]  2.094117             1
[INPUT] 3    0    [1    /1   ]  0.9686785            1
[INPUT] O
[INPUT] 0    0    [10   /1   ]  57.663349         -0.002794
                                35.726816         0.023976
                                22.453757         -0.115974
                                14.732301         0.288033
                                9.739917          -0.274786
                                5.042008          -0.083789
                                2.157818          0.063778
                                1.002916          0.410182
                                0.421839          0.504044
                                0.173041          0.172152
[INPUT] 0    0    [1    /1   ]  0.222099             1
[INPUT] 0    0    [1    /1   ]  0.08884              1
[INPUT] 1    0    [10   /1   ]  52.47406          -0.000522
                                32.138432         0.004857
                                19.458579         -0.027749
                                11.839344         0.074258
                                7.91003           0.014369
                                3.670858          0.153479
                                1.53966           0.283685
                                0.647119          0.358201
                                0.267853          0.29559
                                0.107198          0.104889
[INPUT] 1    0    [1    /1   ]  0.252604             1
[INPUT] 1    0    [1    /1   ]  0.101042             1
[INPUT] 2    0    [1    /1   ]  1.223113             1
[INPUT] 2    0    [1    /1   ]  0.489245             1
nuclear repulsion = 27.4218912506354
number of shells = 24
number of NR pGTOs = 334
number of NR cGTOs = 76
basis = {'Cr': [[0, [41.45590127, 0.010332], [22.20089455, -0.091393], [12.37022616, 0.412444], [7.15443966, -0.722409], [3.63012556, 0.039693], [1.88942247, 0.321055], [1.04381355, 0.652182], [0.47307333, 0.264443], [0.22628807, -0.008646], [0.10750747, 0.012188], [0.05101028, -0.00242], [0.0242372, 0.001733]], [0, [41.45590127, -0.001971], [22.20089455, 0.019152], [12.37022616, -0.094562], [7.15443966, 0.178991], [3.63012556, -0.015716], [1.88942247, -0.084882], [1.04381355, -0.243744], [0.47307333, -0.214624], [0.22628807, 0.055092], [0.10750747, 0.415903], [0.05101028, 0.543473], [0.0242372, 0.170131]], [0, [41.45590127, -0.005874], [22.20089455, 0.067618], [12.37022616, -0.389148], [7.15443966, 0.863039], [3.63012556, -0.192494], [1.88942247, -1.243222], [1.04381355, -0.159486], [0.47307333, 0.70074], [0.22628807, 0.796397], [0.10750747, 0.153618], [0.05101028, -0.585106], [0.0242372, -0.29462]], [0, [0.0242372, 1.0]], [0, [0.01151614, 1.0]], [1, [28.88080716, -0.002973], [13.19380569, 0.044202], [7.25722596, -0.232476], [4.84342676, 0.167654], [2.76949909, 0.179744], [1.50719356, 0.46058], [0.72516508, 0.338218], [0.36385743, 0.097984], [0.16204617, 0.012145], [0.07447705, -0.000948], [0.03422994, 0.000821], [0.01573221, -0.00022]], [1, [28.88080716, 0.000536], [13.19380569, -0.009363], [7.25722596, 0.054752], [4.84342676, -0.042977], [2.76949909, -0.049244], [1.50719356, -0.128712], [0.72516508, -0.11682], [0.36385743, 0.044517], [0.16204617, 0.322192], [0.07447705, 0.482878], [0.03422994, 0.275764], [0.01573221, 0.025472]], [1, [28.88080716, -0.000562], [13.19380569, 0.035351], [7.25722596, -0.310475], [4.84342676, 0.257585], [2.76949909, 0.754226], [1.50719356, 0.194922], [0.72516508, -0.904177], [0.36385743, -0.438274], [0.16204617, 0.529934], [0.07447705, 0.455686], [0.03422994, 0.027191], [0.01573221, 0.005171]], [1, [0.01573221, 1.0]], [1, [0.00723058, 1.0]], [2, [46.50908408, 0.000358], [21.60133229, -0.010512], [11.03652449, 0.11118], [4.54288797, 0.164184], [2.18180243, 0.267436], [1.04009058, 0.310836], [0.48262909, 0.28353], [0.21570372, 0.173079], [0.10059873, 0.057279], [0.04653409, 0.00937]], [2, [46.50908408, 0.000574], [21.60133229, 0.006454], [11.03652449, -0.106748], [4.54288797, -0.214222], [2.18180243, -0.409175], [1.04009058, -0.082468], [0.48262909, 0.284806], [0.21570372, 0.41458], [0.10059873, 0.246257], [0.04653409, 0.05398]], [2, [0.04653409, 1.0]], [2, [0.02152533, 1.0]], [3, [2.094117, 1.0]], [3, [0.9686785, 1.0]]], 'O': [[0, [57.663349, -0.002794], [35.726816, 0.023976], [22.453757, -0.115974], [14.732301, 0.288033], [9.739917, -0.274786], [5.042008, -0.083789], [2.157818, 0.063778], [1.002916, 0.410182], [0.421839, 0.504044], [0.173041, 0.172152]], [0, [0.222099, 1.0]], [0, [0.08884, 1.0]], [1, [52.47406, -0.000522], [32.138432, 0.004857], [19.458579, -0.027749], [11.839344, 0.074258], [7.91003, 0.014369], [3.670858, 0.153479], [1.53966, 0.283685], [0.647119, 0.358201], [0.267853, 0.29559], [0.107198, 0.104889]], [1, [0.252604, 1.0]], [1, [0.101042, 1.0]], [2, [1.223113, 1.0]], [2, [0.489245, 1.0]]]}
ecp = {'Cr': [10, [[-1, [[], [[13.07675203, 14.0]], [[15.15807582, 1258.1555038], [4.62785686, -98.60998187], [15.41136599, -6552.46055066], [15.38690637, 5353.09061557]], [[5.24897308, 183.07452839]]]], [0, [[], [], [[9.77680844, -91901.2080948], [9.95980111, 96320.14803227], [8.62275214, 3928.3135917], [12.29288144, -10977.62459544], [18.41316592, -1741.60409682], [16.38541961, 4413.26493033]], []]], [1, [[], [], [[12.00099996, -22156.17142851], [11.46524435, 21551.07876111], [16.23852226, 3703.78784703], [18.43861108, -1424.18632323], [8.88877941, -1964.93568469], [7.52644784, 317.50498882]], []]], [2, [[], [], [[11.1066837, -5435.29666496], [8.49801115, 7350.69608766], [12.28065533, 2443.80334995], [8.1885354, -5401.76770998], [14.34306836, 3881.23075486], [15.24784181, -2855.87137953]], []]]]], 'O': [2, [[-1, [[], [[10.27717748, 6.0]], [[15.99566749, 1232.50197768], [10.46901775, -696.47008301], [14.6384801, -2654.22657081], [12.57591181, 2101.67732548]], [[7.77739102, 61.66306486]]]], [0, [[], [], [[12.39426073, -656683.37638839], [12.38126171, 657858.57667068], [8.57671033, 511.50098405], [9.89256508, -2579.54665641], [28.05641604, -57.68129584], [17.24753607, 970.30940152]], []]], [1, [[], [], [[14.78918914, -363027.24258186], [14.82014018, 361852.52314043], [22.89622221, -1300.20069256], [8.51331893, -181.96869573], [11.48609758, 2194.87589959], [27.22017524, 451.19906206]], []]]]]}
CPU time:         0.58


******** <class 'pyscf.scf.rohf.ROHF'> flags ********
method = ROHF
initial guess = minao
damping factor = 0
level shift factor = 1000.0
DIIS = <class 'pyscf.scf.diis.CDIIS'>
DIIS start cycle = 1
DIIS space = 8
SCF tol = 1e-09
SCF gradient tol = None
max. SCF cycles = 50
direct_scf = True
direct_scf_tol = 1e-13
chkfile to save SCF result = /projects/bamu3429/BENCHMARK/fresh_atoms/MRPT/monoxides/CrO/tmpXC0byl
max_memory 4000 MB (current use 81 MB)
num. doubly occ = 8  num. singly occ = 4
Set gradient conv threshold to 3.16228e-05
init E= -101.835953544422
  HOMO = 499.888571043393  LUMO = 1000.00182254196
cycle= 1 E= -101.835953544423  delta_E= -6.54e-13  |g|= 1.44e-05  |ddm|= 6.98e-08
  HOMO = -0.111428955284386  LUMO = 0.00182254190826304
Extra cycle  E= -101.835953544596  delta_E= -1.73e-10  |g|= 5.48e-06  |ddm|= 4.3e-05
converged SCF energy = -101.835953544596
**** MO energy ****
                Roothaan           | alpha              | beta
MO #1   energy= -3.65001581756352  | -3.78515963121799  | -3.51487198782654  occ= 2
MO #2   energy= -2.34314238112725  | -2.46247291060641  | -2.22381186765411  occ= 2
MO #3   energy= -2.32795140144719  | -2.48738884219666  | -2.16851396069772  occ= 2
MO #4   energy= -2.32078233383838  | -2.52852495240198  | -2.11303976925897  occ= 2
MO #5   energy= -1.14704866283614  | -1.15597791447502  | -1.13811944938623  occ= 2
MO #6   energy= -0.443520262628759 | -0.46561468557836  | -0.421427905145949 occ= 2
MO #7   energy= -0.42843633333251  | -0.453273503205314 | -0.403599216808397 occ= 2
MO #8   energy= -0.405983747566382 | -0.414570887826    | -0.397396607306763 occ= 2
MO #9   energy= -0.141157730002645 | -0.515785899279855 | 0.233471459366575  occ= 1
MO #10  energy= -0.132814605924383 | -0.563211799019566 | 0.297582609929812  occ= 1
MO #11  energy= -0.119268704127663 | -0.398889269240394 | 0.160352232506753  occ= 1
MO #12  energy= -0.111428955284386 | -0.524295149461545 | 0.301436714052978  occ= 1
MO #13  energy= 0.00182254190826304 | -0.00500362669467795 | 0.00864866449740292 occ= 0
MO #14  energy= 0.0107461797201997 | 0.00846993776518776 | 0.0130224216752141 occ= 0
MO #15  energy= 0.0128927975729929 | 0.0119970032977142 | 0.0137886631284901 occ= 0
MO #16  energy= 0.0238711617316178 | 0.0188082228755094 | 0.0289344323622239 occ= 0
MO #17  energy= 0.0324721260819189 | 0.0245692601078394 | 0.0403749920559983 occ= 0
MO #18  energy= 0.0332833601318786 | 0.0269493319945073 | 0.0396170969580427 occ= 0
MO #19  energy= 0.0420209096719652 | 0.0359459699552761 | 0.0480960171848014 occ= 0
MO #20  energy= 0.0638473801046683 | 0.0634699230024066 | 0.0642248408718152 occ= 0
MO #21  energy= 0.0639175090400697 | 0.0635829616059252 | 0.0642520627404366 occ= 0
MO #22  energy= 0.0734316524228062 | 0.0633433492558151 | 0.0835202884350897 occ= 0
MO #23  energy= 0.0740412685722339 | 0.0717863311654365 | 0.0762962059790297 occ= 0
MO #24  energy= 0.0778090444036076 | 0.0764344197071796 | 0.0791837059500642 occ= 0
MO #25  energy= 0.0946945271948471 | 0.0889762679596099 | 0.100413002540848  occ= 0
MO #26  energy= 0.120364754327585  | 0.0992444090044691 | 0.141485099650702  occ= 0
MO #27  energy= 0.150669327313188  | 0.141856638848816  | 0.159482231969293  occ= 0
MO #28  energy= 0.161255045521924  | 0.138118023073945  | 0.184392219731465  occ= 0
MO #29  energy= 0.198547703649484  | 0.190230546845406  | 0.206864731450968  occ= 0
MO #30  energy= 0.199451131272715  | 0.191102740031559  | 0.207799459664953  occ= 0
MO #31  energy= 0.213302386526594  | 0.192861449996909  | 0.233743323056282  occ= 0
MO #32  energy= 0.215412313361544  | 0.197178214797738  | 0.233646521749932  occ= 0
MO #33  energy= 0.233501618553516  | 0.213272792351927  | 0.253730449711417  occ= 0
MO #34  energy= 0.23803421892764   | 0.21179247176403   | 0.264275966091251  occ= 0
MO #35  energy= 0.360723973400264  | 0.349472771043272  | 0.371975332737641  occ= 0
MO #36  energy= 0.476730888217528  | 0.474849602020359  | 0.478612174414699  occ= 0
MO #37  energy= 0.47736595395444   | 0.474216917900652  | 0.480514992721571  occ= 0
MO #38  energy= 0.484183403171273  | 0.471458211381691  | 0.496908540416413  occ= 0
MO #39  energy= 1.12476258760872   | 1.09401351011682   | 1.15551162010591   occ= 0
MO #40  energy= 1.27568927718914   | 1.20752881874527   | 1.34384978688202   occ= 0
MO #41  energy= 1.27711346498965   | 1.21003515841167   | 1.34419182157963   occ= 0
MO #42  energy= 1.30927015624828   | 1.24460607035418   | 1.37393433841078   occ= 0
MO #43  energy= 1.35262370910426   | 1.33104856237661   | 1.3741988558319    occ= 0
MO #44  energy= 1.49548757076526   | 1.46841319918909   | 1.52256192291314   occ= 0
MO #45  energy= 1.49571314880602   | 1.46863398329899   | 1.52279227931735   occ= 0
MO #46  energy= 1.53538532555475   | 1.53100711396055   | 1.53976354563631   occ= 0
MO #47  energy= 1.57129993742463   | 1.56386376749912   | 1.5787361271591    occ= 0
MO #48  energy= 1.57451772910404   | 1.57233764707158   | 1.5766978111365    occ= 0
MO #49  energy= 1.69996228694667   | 1.65686626782465   | 1.74305816554602   occ= 0
MO #50  energy= 1.70068809176132   | 1.66517491757258   | 1.73620134177147   occ= 0
MO #51  energy= 1.70621622544865   | 1.69113943068198   | 1.72129302021532   occ= 0
MO #52  energy= 1.9266361041169    | 1.91462022571867   | 1.93865198387294   occ= 0
MO #53  energy= 2.07329983039852   | 2.03659952551552   | 2.11000014674657   occ= 0
MO #54  energy= 2.80328456363512   | 2.71374350958849   | 2.89282561768176   occ= 0
MO #55  energy= 2.80404916273836   | 2.71303017026609   | 2.89506815493852   occ= 0
MO #56  energy= 2.83768582782943   | 2.77098245872369   | 2.90438919693517   occ= 0
MO #57  energy= 2.84264556568134   | 2.78144765711677   | 2.90384347949315   occ= 0
MO #58  energy= 2.84265335813687   | 2.77954438446219   | 2.90576233554514   occ= 0
MO #59  energy= 2.85542754371447   | 2.7765186657267    | 2.93433641222203   occ= 0
MO #60  energy= 2.89138679872403   | 2.85117246474083   | 2.93160113464163   occ= 0
MO #61  energy= 3.1703490457423    | 3.14457866045359   | 3.19611943103101   occ= 0
MO #62  energy= 3.17576366942872   | 3.12012419420238   | 3.23140317057182   occ= 0
MO #63  energy= 4.00496224012468   | 3.96958984021884   | 4.04033463764708   occ= 0
MO #64  energy= 4.25102210574376   | 4.24827451757906   | 4.25376969421714   occ= 0
MO #65  energy= 4.25103948848158   | 4.24828225325709   | 4.25379672401375   occ= 0
MO #66  energy= 4.35846036347669   | 4.35721528596953   | 4.35970544098386   occ= 0
MO #67  energy= 4.36415010726707   | 4.36107665726403   | 4.36722354938412   occ= 0
MO #68  energy= 4.48550258998807   | 4.47474609176337   | 4.49625910395414   occ= 0
MO #69  energy= 7.12556553076261   | 7.10913532987391   | 7.14199572789698   occ= 0
MO #70  energy= 7.49802152128842   | 7.4091265555929    | 7.58691648698392   occ= 0
MO #71  energy= 7.49803057090074   | 7.40908673296726   | 7.5869744087052    occ= 0
MO #72  energy= 7.51451597504588   | 7.44657617605644   | 7.58245577115939   occ= 0
MO #73  energy= 7.51470756154397   | 7.44544636235089   | 7.58396875869875   occ= 0
MO #74  energy= 7.65328075942687   | 7.61331960376114   | 7.69324191509258   occ= 0
MO #75  energy= 7.66405746702554   | 7.59021509189103   | 7.7378998389269    occ= 0
MO #76  energy= 7.76460600572636   | 7.71227511990916   | 7.81693689196196   occ= 0
 ** Mulliken pop on meta-lowdin orthogonal AOs  **
 ** Mulliken pop  **
pop of  0Cr 3s        1.99967
pop of  0Cr 4s        0.70180
pop of  0Cr 5s        0.00840
pop of  0Cr 6s        0.00862
pop of  0Cr 7s        0.00296
pop of  0Cr 3px       1.99947
pop of  0Cr 3py       1.99957
pop of  0Cr 3pz       1.99793
pop of  0Cr 4px       0.01838
pop of  0Cr 4py       0.04099
pop of  0Cr 4pz       0.02123
pop of  0Cr 5px       0.00065
pop of  0Cr 5py       0.00136
pop of  0Cr 5pz       0.00259
pop of  0Cr 6px       0.00024
pop of  0Cr 6py       0.00060
pop of  0Cr 6pz       0.00165
pop of  0Cr 7px       0.00010
pop of  0Cr 7py       0.00024
pop of  0Cr 7pz       0.00023
pop of  0Cr 3dxy      0.99763
pop of  0Cr 3dyz      1.06526
pop of  0Cr 3dz^2     0.81353
pop of  0Cr 3dxz      0.31634
pop of  0Cr 3dx2-y2    0.98563
pop of  0Cr 4dxy      0.00157
pop of  0Cr 4dyz      0.00295
pop of  0Cr 4dz^2     0.00013
pop of  0Cr 4dxz      0.00336
pop of  0Cr 4dx2-y2    0.00167
pop of  0Cr 5dxy      0.00068
pop of  0Cr 5dyz      0.00079
pop of  0Cr 5dz^2     0.00089
pop of  0Cr 5dxz      0.00049
pop of  0Cr 5dx2-y2    0.00070
pop of  0Cr 6dxy      0.00002
pop of  0Cr 6dyz      0.00011
pop of  0Cr 6dz^2     0.00013
pop of  0Cr 6dxz      0.00004
pop of  0Cr 6dx2-y2    0.00002
pop of  0Cr 4fy^3     0.00001
pop of  0Cr 4fxyz     0.00000
pop of  0Cr 4fyz^2    0.00008
pop of  0Cr 4fz^3     0.00014
pop of  0Cr 4fxz^2    0.00007
pop of  0Cr 4fzx^2    0.00001
pop of  0Cr 4fx^3     0.00001
pop of  0Cr 5fy^3     0.00001
pop of  0Cr 5fxyz     0.00007
pop of  0Cr 5fyz^2    0.00047
pop of  0Cr 5fz^3     0.00059
pop of  0Cr 5fxz^2    0.00049
pop of  0Cr 5fzx^2    0.00009
pop of  0Cr 5fx^3     0.00001
pop of  1O 2s        1.87981
pop of  1O 3s        0.00236
pop of  1O 4s        0.00832
pop of  1O 2px       1.64383
pop of  1O 2py       1.86218
pop of  1O 2pz       1.55126
pop of  1O 3px       0.00408
pop of  1O 3py       0.00669
pop of  1O 3pz       0.00148
pop of  1O 4px       0.00587
pop of  1O 4py       0.01292
pop of  1O 4pz       0.00363
pop of  1O 3dxy      0.00000
pop of  1O 3dyz      0.00083
pop of  1O 3dz^2     0.00146
pop of  1O 3dxz      0.00122
pop of  1O 3dx2-y2    0.00001
pop of  1O 4dxy      0.00003
pop of  1O 4dyz      0.00494
pop of  1O 4dz^2     0.00306
pop of  1O 4dxz      0.00535
pop of  1O 4dx2-y2    0.00003
 ** Mulliken atomic charges  **
charge of  0Cr =      0.99935
charge of  1O =     -0.99935

******** <class 'pyscf.mcscf.mc1step.CASSCF'> flags ********
CAS (7e+3e, 9o), ncore = 5, nvir = 62
max_cycle_macro = 50
max_cycle_micro = 4
conv_tol = 1e-07
conv_tol_grad = None
orbital rotation max_stepsize = 0.02
augmented hessian ah_max_cycle = 30
augmented hessian ah_conv_tol = 1e-12
augmented hessian ah_linear dependence = 1e-14
augmented hessian ah_level shift = 0
augmented hessian ah_start_tol = 2.5
augmented hessian ah_start_cycle = 3
augmented hessian ah_grad_trust_region = 3
kf_trust_region = 3
kf_interval = 4
ci_response_space = 4
ci_grad_trust_region = 3
with_dep4 0
natorb = False
canonicalization = True
chkfile = ./scratch/132780/tmpfagP1W
max_memory 4000 MB (current use 129 MB)
internal_rotation = False

******** SHCI flags ********
executable             = /home/bamu3429/softwares/dice/Dice
mpiprefix              = mpirun -np 28
scratchDirectory       = ./scratch/132780
integralFile           = ./FCIDUMP
configFile             = ./input.dat
outputFile             = ./output.dat
maxIter                = 6
sweep_iter             = []
sweep_epsilon          = []
nPTiter                = 0
Stochastic             = True
fullrestart            = False
restart                = False
num_thrds              = 12
memory                 = None

CASCI E = -101.837620790102  S^2 = 6.0000000
Set conv_tol_grad to 0.000316228
macro iter 1 (21 JK  4 micro), CASSCF E = -101.865127534174  dE = -0.027506744  S^2 = 6.0000000
               |grad[o]|=0.00795  |grad[c]|= None  |ddm|=0.145
macro iter 2 (21 JK  4 micro), CASSCF E = -101.902764125815  dE = -0.037636592  S^2 = 6.0000000
               |grad[o]|=0.0971  |grad[c]|= None  |ddm|=0.162
macro iter 3 (21 JK  4 micro), CASSCF E = -101.927150468955  dE = -0.024386343  S^2 = 6.0000000
               |grad[o]|=0.0921  |grad[c]|= None  |ddm|=0.0491
macro iter 4 (21 JK  4 micro), CASSCF E = -101.956074554168  dE = -0.028924085  S^2 = 6.0000000
               |grad[o]|=0.078  |grad[c]|= None  |ddm|= 0.11
macro iter 5 (17 JK  4 micro), CASSCF E = -101.968118309955  dE = -0.012043756  S^2 = 6.0000000
               |grad[o]|= 0.07  |grad[c]|= None  |ddm|=0.206
macro iter 6 (11 JK  4 micro), CASSCF E = -101.968234646813  dE = -0.00011633686  S^2 = 6.0000000
               |grad[o]|=0.00869  |grad[c]|= None  |ddm|=0.0219
macro iter 7 (8 JK  3 micro), CASSCF E = -101.968235446149  dE = -7.9933594e-07  S^2 = 6.0000000
               |grad[o]|=0.000551  |grad[c]|= None  |ddm|=0.0021
macro iter 8 (3 JK  1 micro), CASSCF E = -101.968235464611  dE = -1.8461805e-08  S^2 = 6.0000000
               |grad[o]|=0.000103  |grad[c]|= None  |ddm|=0.00014
1-step CASSCF converged in 8 macro (123 JK 28 micro) steps
CASSCF canonicalization
CASSCF energy = -101.968235464611


--------------------------------------------------
                 ICMPSPT CALCULATION              
--------------------------------------------------

Perturbation type: MRLCC
With fully internally contracted scheme
With third order correction

Preparing necessary RDMs
......production of RDMs took      41.57 sec
Reading binary 4RDM from DICE
......reading the RDM took         26.52 sec

(GOOD) Trace 4RDM:   5040.0 =   10*    9*    8*    7
(GOOD) Trace 3RDM:    720.0 =   10*    9*    8
(GOOD) Trace 2RDM:     90.0 =   10*    9
(GOOD) Trace 1RDM:     10.0 =   10

Producing the integrals
......production of INT took     169.10 sec

Energy_core =  -104.454627706
Energy      =  -101.968235465

WARNING: Have to use natural orbitals from CAASCF
         offdiagonal elements: 0.622889967639

Basic ingredients written to int/
......savings of INGREDIENTS took      29.54 sec

Second-order:
perturber CCVV --        -0.081304628
perturber CCAV --        -0.052291381
perturber ACVV --        -0.118252603
perturber CCAA --        -0.040783771
perturber AAVV --        -0.148346497
perturber CAAV --        -0.131205913
perturber AAAV --        -0.057069253
perturber AAAC --        -0.004558040
Total:                   -0.633812085

Third-order:             -0.000484057

Total PT       --        -0.634296142

