 &FCI NORB=6 ,NELEC=4 ,MS2=2,
  ORBSYM=1,1,1,1,1,1,
  ISYM=1,
 &END
  2.450229672594e-01    1  1  1  1
  2.943784154779e-09    2  1  1  1
  8.557573577877e-03    2  1  2  1
  3.073593667745e-01    2  2  1  1
  2.661025106241e-04    2  2  2  1
  6.625399022280e-01    2  2  2  2
 -4.778602893908e-08    3  1  1  1
 -1.830075637236e-07    3  1  2  1
  3.752703189048e-03    3  1  2  2
  8.557595327759e-03    3  1  3  1
  2.485017720386e-07    3  2  1  1
  3.752904670710e-03    3  2  2  1
  2.448358181668e-06    3  2  2  2
 -2.659967043546e-04    3  2  3  1
  2.994826829553e-02    3  2  3  2
  3.073592782038e-01    3  3  1  1
 -2.656477539189e-04    3  3  2  1
  6.026427744555e-01    3  3  2  2
 -3.753188675040e-03    3  3  3  1
  2.384893917451e-06    3  3  3  2
  6.625387866375e-01    3  3  3  3
  5.597431440235e-02    4  1  4  1
 -6.999400057840e-03    4  2  4  1
  8.346627151071e-03    4  2  4  2
 -2.403870491785e-05    4  3  4  1
 -2.204447440911e-03    4  3  4  2
  8.674041304273e-03    4  3  4  3
  2.420393320157e-01    4  4  1  1
 -3.758897896558e-03    4  4  2  1
  2.991051675284e-01    4  4  2  2
 -1.301412655508e-05    4  4  3  1
 -3.165830251724e-03    4  4  3  2
  2.995750657216e-01    4  4  3  3
  2.588583054052e-01    4  4  4  4
 -2.554444209200e-07    5  1  4  1
  5.577256073998e-03    5  1  4  2
  1.047682405384e-02    5  1  4  3
  5.597530295222e-02    5  1  5  1
  5.576804404112e-03    5  2  4  1
  3.424228506079e-03    5  2  4  2
  1.522102610338e-03    5  2  4  3
  1.251321268223e-02    5  2  5  1
  8.804950445998e-03    5  2  5  2
  1.047715176721e-02    5  3  4  1
  1.522709141430e-03    5  3  4  2
 -3.424674677659e-03    5  3  4  3
  5.016135084572e-05    5  3  5  1
  3.939627839919e-03    5  3  5  2
  8.214665908488e-03    5  3  5  3
 -5.494739490760e-07    5  4  1  1
  2.995089789891e-03    5  4  2  1
  4.917429573452e-03    5  4  2  2
  5.626544785951e-03    5  4  3  1
  2.186846011019e-03    5  4  3  2
 -4.919857073790e-03    5  4  3  3
 -4.493412594255e-04    5  4  4  4
  1.567258147334e-02    5  4  5  4
  2.420405388362e-01    5  5  1  1
  6.720181523779e-03    5  5  2  1
  2.997647446942e-01    5  5  2  2
  2.698027032175e-05    5  5  3  1
  5.659997758689e-03    5  5  3  2
  2.989173507204e-01    5  5  3  3
  2.291771757417e-01    5  5  4  4
  8.032080431965e-04    5  5  5  4
  2.600938265379e-01    5  5  5  5
 -7.549049869507e-07    6  1  4  1
  1.195168067735e-02    6  1  4  2
 -1.114751168466e-02    6  1  4  3
 -3.505551625429e-07    6  1  5  1
  7.125898526549e-03    6  1  5  2
  1.042532090332e-02    6  1  5  3
  5.597403557959e-02    6  1  6  1
  1.195175336793e-02    6  2  4  1
 -3.243910928126e-03    6  2  4  2
  4.012610070605e-03    6  2  4  3
  7.126545010501e-03    6  2  5  1
  3.442225150461e-03    6  2  5  2
  2.011461953816e-03    6  2  5  3
 -5.514779457303e-03    6  2  6  1
  8.379267741237e-03    6  2  6  2
 -1.114752736208e-02    6  3  4  1
  4.012744521790e-03    6  3  4  2
  3.243135867232e-03    6  3  4  3
  1.042502869786e-02    6  3  5  1
  2.011367238275e-03    6  3  5  2
 -3.442357837060e-03    6  3  5  3
 -2.588101732586e-05    6  3  6  1
 -1.736714640173e-03    6  3  6  2
  8.642085888321e-03    6  3  6  3
 -1.469863458352e-06    6  4  1  1
  6.418478785020e-03    6  4  2  1
 -4.662137533642e-03    6  4  2  2
 -5.986633455635e-03    6  4  3  1
  5.763295112340e-03    6  4  3  2
  4.656390113781e-03    6  4  3  3
 -9.572032066047e-04    6  4  4  4
 -5.740169021577e-04    6  4  5  4
  1.706382618705e-03    6  4  5  5
  1.711828253978e-02    6  4  6  4
 -5.995445569396e-07    6  5  1  1
  3.827059135139e-03    6  5  2  1
  4.943253411669e-03    6  5  2  2
  5.598709076249e-03    6  5  3  1
  2.889264088679e-03    6  5  3  2
 -4.945305330409e-03    6  5  3  3
 -5.744143178779e-04    6  5  4  4
  1.707402258681e-03    6  5  5  4
  1.025243917266e-03    6  5  5  5
 -3.551677428485e-04    6  5  6  4
  1.588556718432e-02    6  5  6  5
  2.420393870186e-01    6  6  1  1
 -2.961599063688e-03    6  6  2  1
  2.991524180161e-01    6  6  2  2
 -1.401074445592e-05    6  6  3  1
 -2.494041613965e-03    6  6  3  2
  2.995295344020e-01    6  6  3  3
  2.306223591923e-01    6  6  4  4
 -3.555559984817e-04    6  6  5  4
  2.293903330246e-01    6  6  5  5
 -7.537738565853e-04    6  6  6  4
 -4.526386615350e-04    6  6  6  5
  2.586455753369e-01    6  6  6  6
 -1.072151074066e+00    1  1  0  0
 -4.226240430622e-07    2  1  0  0
 -1.610358386942e+00    2  2  0  0
  4.221411483665e-07    3  1  0  0
 -2.835056444588e-06    3  2  0  0
 -1.610357728299e+00    3  3  0  0
 -9.274658901064e-01    4  4  0  0
  1.505527091970e-06    5  4  0  0
 -9.274687002956e-01    5  5  0  0
  3.867475085829e-06    6  4  0  0
  1.588324028938e-06    6  5  0  0
 -9.274665597770e-01    6  6  0  0
    -54.187104188104   0  0  0  0
