 &FCI NORB=3 ,NELEC=4 ,MS2=2,
  ORBSYM=1,1,1,
  ISYM=1,
 &END
  7.852268008402e-01    1  1  1  1
  3.988003398824e-02    2  1  2  1
  7.254949726023e-01    2  2  1  1
  8.292665295734e-01    2  2  2  2
  3.988003379384e-02    3  1  3  1
  4.207919405733e-02    3  2  3  2
  7.254949694730e-01    3  3  1  1
  7.451081376800e-01    3  3  2  2
  8.292665220161e-01    3  3  3  3
 -2.763660475774e+00    1  1  0  0
 -2.817643596269e+00    2  2  0  0
 -2.817643587132e+00    3  3  0  0
     -8.799782260959   0  0  0  0
