 &FCI NORB=9 ,NELEC=15 ,MS2=1,
  ORBSYM=1,1,1,1,1,1,1,1,1,
  ISYM=1,
 &END
  9.640130197249e-01    1  1  1  1
 -1.847955065319e-03    2  1  1  1
  2.448567949471e-02    2  1  2  1
  7.096082124817e-01    2  2  1  1
 -4.186946530129e-03    2  2  2  1
  6.864779857478e-01    2  2  2  2
  1.538156661399e-06    3  1  1  1
 -5.930979679873e-07    3  1  2  1
 -3.627979687186e-07    3  1  2  2
  3.666535487328e-02    3  1  3  1
  1.923334554102e-06    3  2  1  1
  2.066559293215e-08    3  2  2  1
  5.806629565599e-07    3  2  2  2
  5.073754233474e-03    3  2  3  1
  1.800171295967e-02    3  2  3  2
  9.096509635630e-01    3  3  1  1
 -1.865169950797e-02    3  3  2  1
  7.433394596783e-01    3  3  2  2
  1.224767295901e-07    3  3  3  1
  9.486049563965e-07    3  3  3  2
  1.026567024851e+00    3  3  3  3
  3.462466796806e-02    4  1  1  1
  1.813575080998e-03    4  1  2  1
  1.575065204862e-02    4  1  2  2
 -2.327862209323e-06    4  1  3  1
 -3.017747821780e-07    4  1  3  2
  3.496036100267e-02    4  1  3  3
  2.462458232151e-02    4  1  4  1
  7.907400734505e-02    4  2  1  1
 -2.037693917159e-03    4  2  2  1
  4.419215550738e-02    4  2  2  2
  4.535451618149e-07    4  2  3  1
  4.558488763813e-07    4  2  3  2
  7.670597859586e-02    4  2  3  3
  8.888306418545e-03    4  2  4  1
  7.402616595958e-02    4  2  4  2
 -8.039699501107e-06    4  3  1  1
 -7.663707153352e-07    4  3  2  1
  9.739290635760e-08    4  3  2  2
 -1.655818234232e-05    4  3  3  1
  2.000153018935e-03    4  3  3  2
 -5.459940157977e-06    4  3  3  3
 -8.633646185219e-06    4  3  4  1
 -3.984869236162e-06    4  3  4  2
  2.478180427809e-02    4  3  4  3
  4.218031707731e-01    4  4  1  1
  2.788559040793e-03    4  4  2  1
  5.268284156772e-01    4  4  2  2
 -5.226319773073e-06    4  4  3  1
 -2.567167940185e-06    4  4  3  2
  4.223928221053e-01    4  4  3  3
 -1.697542679406e-02    4  4  4  1
 -3.428965923297e-02    4  4  4  2
  1.117807530537e-05    4  4  4  3
  6.781352971810e-01    4  4  4  4
  1.078276264155e-06    5  1  1  1
 -5.387622686476e-07    5  1  2  1
  6.914612026562e-07    5  1  2  2
  9.073460033802e-03    5  1  3  1
  5.218492601638e-03    5  1  3  2
  1.730843079060e-06    5  1  3  3
 -1.469143190980e-06    5  1  4  1
  2.583934635552e-06    5  1  4  2
  6.506612946058e-03    5  1  4  3
 -3.240410362244e-06    5  1  4  4
  3.399316038200e-02    5  1  5  1
  1.110765068822e-07    5  2  1  1
  3.202982266056e-08    5  2  2  1
  9.216255300582e-07    5  2  2  2
 -1.094901688472e-02    5  2  3  1
 -5.421914973073e-06    5  2  3  2
  4.396848107438e-06    5  2  3  3
  1.696565637376e-06    5  2  4  1
  7.763455287001e-07    5  2  4  2
 -2.377768185418e-04    5  2  4  3
 -7.280281595530e-07    5  2  4  4
 -5.621510397307e-04    5  2  5  1
  3.049213018377e-02    5  2  5  2
 -1.480778241481e-02    5  3  1  1
  5.052222994516e-03    5  3  2  1
  1.044155524827e-05    5  3  2  2
 -1.414132297381e-09    5  3  3  1
 -1.063056152428e-06    5  3  3  2
 -2.447839609832e-06    5  3  3  3
 -1.440728132092e-03    5  3  4  1
  1.341083325458e-04    5  3  4  2
  7.004872766099e-07    5  3  4  3
  2.633753890194e-04    5  3  4  4
  2.535944146071e-07    5  3  5  1
  2.874781722546e-08    5  3  5  2
  3.972505845219e-02    5  3  5  3
 -1.429271788480e-06    5  4  1  1
  2.192949503913e-06    5  4  2  1
 -2.257320581452e-06    5  4  2  2
 -2.373691809616e-03    5  4  3  1
  1.458443580139e-04    5  4  3  2
 -5.343888778315e-06    5  4  3  3
 -6.422431413985e-06    5  4  4  1
 -1.186723957139e-06    5  4  4  2
  6.203625729062e-04    5  4  4  3
  3.136751661160e-06    5  4  4  4
  1.807016793361e-03    5  4  5  1
  7.693562057554e-03    5  4  5  2
 -2.705807895487e-07    5  4  5  3
  5.530485262146e-03    5  4  5  4
  9.375984691521e-01    5  5  1  1
 -7.791142859192e-03    5  5  2  1
  7.202684692852e-01    5  5  2  2
  6.232831560382e-07    5  5  3  1
  8.003911589873e-07    5  5  3  2
  9.568569272291e-01    5  5  3  3
  4.187236668145e-02    5  5  4  1
  8.096474084303e-02    5  5  4  2
 -5.922688167808e-06    5  5  4  3
  4.003745869511e-01    5  5  4  4
  1.162940724855e-06    5  5  5  1
  1.404829777500e-06    5  5  5  2
 -2.504087899469e-06    5  5  5  3
 -7.929284251840e-06    5  5  5  4
  1.046729251301e+00    5  5  5  5
  9.027918762154e-02    6  1  1  1
  1.325467637211e-02    6  1  2  1
  1.704844850729e-02    6  1  2  2
  2.219764067324e-06    6  1  3  1
 -1.184014371824e-07    6  1  3  2
  4.045472816394e-02    6  1  3  3
 -5.025276262458e-03    6  1  4  1
  2.740592682580e-02    6  1  4  2
 -1.429468437839e-05    6  1  4  3
 -3.302322050609e-02    6  1  4  4
 -2.124903116431e-06    6  1  5  1
 -7.635671237527e-07    6  1  5  2
  4.967608573232e-03    6  1  5  3
  7.947633680690e-06    6  1  5  4
  5.511531693776e-02    6  1  5  5
  1.244741255448e-01    6  1  6  1
  2.067807573729e-02    6  2  1  1
  4.807249847118e-03    6  2  2  1
 -2.074385251631e-03    6  2  2  2
  8.197993450435e-07    6  2  3  1
 -1.123142625260e-07    6  2  3  2
  4.146771644913e-03    6  2  3  3
 -5.299479225238e-03    6  2  4  1
  4.252873882229e-03    6  2  4  2
 -2.504299050998e-06    6  2  4  3
 -5.364953379951e-03    6  2  4  4
 -2.807939161022e-06    6  2  5  1
  2.152695935971e-07    6  2  5  2
  1.898316789013e-03    6  2  5  3
  1.296117548750e-05    6  2  5  4
  2.196622350055e-03    6  2  5  5
  4.829520695003e-02    6  2  6  1
  5.073511822458e-02    6  2  6  2
  6.449149672926e-07    6  3  1  1
 -3.048958634979e-07    6  3  2  1
  1.214236131048e-06    6  3  2  2
 -9.782701630271e-04    6  3  3  1
 -7.942211061193e-04    6  3  3  2
  8.738841052944e-07    6  3  3  3
 -5.963075732871e-06    6  3  4  1
 -6.818859273973e-07    6  3  4  2
  1.157911006778e-02    6  3  4  3
  3.985099782371e-06    6  3  4  4
  2.813109060982e-03    6  3  5  1
  1.605950234625e-03    6  3  5  2
  2.220079133927e-07    6  3  5  3
  9.102479426352e-03    6  3  5  4
  5.809244628761e-07    6  3  5  5
 -4.958359491800e-06    6  3  6  1
 -4.262666526108e-08    6  3  6  2
  2.850385529473e-02    6  3  6  3
  4.288376297942e-02    6  4  1  1
  6.941663907429e-03    6  4  2  1
  2.507224133870e-02    6  4  2  2
 -5.225275361375e-06    6  4  3  1
 -9.294748753574e-07    6  4  3  2
  5.452240551206e-02    6  4  3  3
 -1.038043144277e-02    6  4  4  1
  8.388998955309e-03    6  4  4  2
  9.690198359425e-07    6  4  4  3
 -1.728315322724e-02    6  4  4  4
 -1.450690799119e-06    6  4  5  1
  7.785251722885e-06    6  4  5  2
  1.670773438305e-02    6  4  5  3
  7.493753876337e-06    6  4  5  4
  5.048169135367e-02    6  4  5  5
  2.927440789574e-02    6  4  6  1
  1.780991718194e-02    6  4  6  2
  1.558800448225e-06    6  4  6  3
  3.213027624298e-02    6  4  6  4
  3.821899773126e-06    6  5  1  1
 -2.346106704390e-06    6  5  2  1
 -1.504217120888e-07    6  5  2  2
  2.448763206963e-03    6  5  3  1
  2.574405093103e-03    6  5  3  2
 -1.039044085043e-06    6  5  3  3
 -1.273814810736e-05    6  5  4  1
  1.335249546769e-05    6  5  4  2
  4.326490782050e-02    6  5  4  3
  6.629183797554e-06    6  5  4  4
  2.903631055376e-02    6  5  5  1
  3.058931320813e-04    6  5  5  2
  1.328731886345e-06    6  5  5  3
  3.768931005331e-03    6  5  5  4
 -3.520131147975e-06    6  5  5  5
  1.258088459305e-06    6  5  6  1
  1.244983022366e-07    6  5  6  2
  2.569036625832e-02    6  5  6  3
  1.015822314533e-06    6  5  6  4
  1.603196992918e-01    6  5  6  5
  9.911403900518e-01    6  6  1  1
  1.872475078376e-02    6  6  2  1
  7.702859639230e-01    6  6  2  2
 -2.962613140504e-06    6  6  3  1
  8.325218366438e-07    6  6  3  2
  9.808684986342e-01    6  6  3  3
  5.936332862897e-02    6  6  4  1
  8.193506520085e-02    6  6  4  2
 -3.573656864274e-06    6  6  4  3
  4.430197513926e-01    6  6  4  4
  4.070263678838e-06    6  6  5  1
  1.657514579926e-06    6  6  5  2
  1.440099871313e-02    6  6  5  3
 -1.360571814440e-05    6  6  5  4
  1.068246821329e+00    6  6  5  5
  3.543356960209e-02    6  6  6  1
 -2.493597242310e-02    6  6  6  2
  5.016184236409e-07    6  6  6  3
  5.072996714033e-02    6  6  6  4
  4.167169226309e-07    6  6  6  5
  1.219947056553e+00    6  6  6  6
  9.047567113171e-03    7  1  1  1
  1.469030505764e-02    7  1  2  1
  2.305784621339e-03    7  1  2  2
 -3.396332462568e-07    7  1  3  1
  1.121657016202e-07    7  1  3  2
 -2.926670046604e-03    7  1  3  3
  1.528588056733e-05    7  1  4  1
  6.057422371583e-03    7  1  4  2
  2.437908657706e-07    7  1  4  3
 -1.778918212105e-03    7  1  4  4
 -6.820403180257e-07    7  1  5  1
  8.753609110228e-08    7  1  5  2
  3.820500254391e-03    7  1  5  3
  2.803536038144e-06    7  1  5  4
  4.393260156749e-03    7  1  5  5
  1.389632092726e-02    7  1  6  1
  6.675626715907e-03    7  1  6  2
  1.392557430913e-07    7  1  6  3
  7.990602934999e-03    7  1  6  4
 -1.230856928966e-06    7  1  6  5
  1.917971553921e-02    7  1  6  6
  1.564906880928e-02    7  1  7  1
  2.509809633098e-01    7  2  1  1
 -3.514550273251e-03    7  2  2  1
  1.160319396044e-01    7  2  2  2
  2.828308591216e-07    7  2  3  1
  4.214193755094e-07    7  2  3  2
  2.779553737113e-01    7  2  3  3
  2.844736784209e-02    7  2  4  1
  4.136330591318e-02    7  2  4  2
 -6.582668637897e-06    7  2  4  3
 -1.148015737316e-01    7  2  4  4
  8.372520672538e-07    7  2  5  1
  1.107023567306e-06    7  2  5  2
 -9.107552487483e-06    7  2  5  3
 -4.649625173771e-06    7  2  5  4
  2.751028124452e-01    7  2  5  5
  3.763012365708e-02    7  2  6  1
  4.536084215023e-03    7  2  6  2
 -6.238503924683e-07    7  2  6  3
  3.679733095282e-02    7  2  6  4
 -9.374565409754e-07    7  2  6  5
  2.895441813265e-01    7  2  6  6
  2.415176340042e-03    7  2  7  1
  2.220575002111e-01    7  2  7  2
  1.655460579078e-07    7  3  1  1
  2.379584394539e-07    7  3  2  1
 -4.521419146936e-07    7  3  2  2
  4.240810621964e-03    7  3  3  1
  1.022875899707e-02    7  3  3  2
 -5.986903853968e-07    7  3  3  3
  1.207587497338e-06    7  3  4  1
 -1.166058411606e-06    7  3  4  2
 -6.594717580642e-03    7  3  4  3
 -2.953679398493e-06    7  3  4  4
  2.620115035493e-03    7  3  5  1
  1.977066130189e-05    7  3  5  2
 -1.021453932589e-06    7  3  5  3
 -1.598541211461e-05    7  3  5  4
 -4.435769802370e-07    7  3  5  5
  2.315082780855e-07    7  3  6  1
 -1.003013218678e-07    7  3  6  2
 -2.989578015534e-03    7  3  6  3
 -1.445704387121e-06    7  3  6  4
 -7.992878682483e-03    7  3  6  5
 -6.621144120846e-07    7  3  6  6
 -9.466114159480e-08    7  3  7  1
 -9.547584849340e-08    7  3  7  2
  1.438720934431e-02    7  3  7  3
 -2.909024592731e-02    7  4  1  1
  6.400079285848e-03    7  4  2  1
 -3.761222483150e-02    7  4  2  2
  1.377621719850e-06    7  4  3  1
 -6.263343102363e-07    7  4  3  2
 -5.093470741021e-02    7  4  3  3
 -2.991236431254e-03    7  4  4  1
 -4.488564180047e-02    7  4  4  2
 -6.301125131185e-06    7  4  4  3
 -1.754034069431e-04    7  4  4  4
  1.629390568789e-06    7  4  5  1
 -6.489133978457e-07    7  4  5  2
  5.076924884827e-05    7  4  5  3
  8.709500488479e-07    7  4  5  4
 -3.925108888040e-02    7  4  5  5
  2.289679365800e-02    7  4  6  1
  1.354530703332e-02    7  4  6  2
 -2.681659682760e-06    7  4  6  3
 -3.078575276283e-03    7  4  6  4
  6.938305446817e-06    7  4  6  5
 -4.352088758823e-02    7  4  6  6
 -3.205293431584e-03    7  4  7  1
 -1.383420970631e-02    7  4  7  2
  1.258464552440e-06    7  4  7  3
  8.359758598914e-02    7  4  7  4
 -2.353593982455e-06    7  5  1  1
  4.506214982932e-08    7  5  2  1
 -5.738873400983e-07    7  5  2  2
 -7.429074962916e-03    7  5  3  1
 -1.714930793043e-05    7  5  3  2
  5.434646980967e-07    7  5  3  3
  1.410084045797e-06    7  5  4  1
 -7.990806693689e-07    7  5  4  2
 -2.125298182889e-04    7  5  4  3
  3.367388220210e-07    7  5  4  4
 -2.301375095311e-04    7  5  5  1
  2.018000602074e-02    7  5  5  2
  5.403922660210e-09    7  5  5  3
  3.731540709292e-03    7  5  5  4
 -1.520910972013e-06    7  5  5  5
 -1.167054373653e-06    7  5  6  1
 -4.914538394938e-07    7  5  6  2
 -1.436684241093e-03    7  5  6  3
  4.194641074094e-06    7  5  6  4
 -3.663762647594e-04    7  5  6  5
 -1.066793797072e-06    7  5  6  6
 -2.394709338796e-07    7  5  7  1
 -6.202075163031e-07    7  5  7  2
  1.189402075532e-05    7  5  7  3
  9.002334849964e-07    7  5  7  4
  1.619994086382e-02    7  5  7  5
  8.100492173219e-03    7  6  1  1
  2.743327239554e-03    7  6  2  1
 -4.016645003865e-03    7  6  2  2
  5.858546501899e-07    7  6  3  1
  5.354725745160e-08    7  6  3  2
 -6.763797136783e-03    7  6  3  3
 -1.852137831575e-03    7  6  4  1
  9.675684966056e-03    7  6  4  2
 -2.413985293472e-06    7  6  4  3
 -2.715825167510e-03    7  6  4  4
 -1.817569466144e-06    7  6  5  1
 -2.285763163523e-07    7  6  5  2
 -3.803723663301e-03    7  6  5  3
  7.064775664872e-06    7  6  5  4
 -7.756548263650e-03    7  6  5  5
  2.735983048592e-02    7  6  6  1
  2.912547473112e-02    7  6  6  2
 -4.101894224150e-07    7  6  6  3
  5.192119890410e-03    7  6  6  4
 -2.912200523841e-07    7  6  6  5
 -2.778881819437e-02    7  6  6  6
  1.033609069250e-03    7  6  7  1
 -5.440686649476e-03    7  6  7  2
  2.293769960138e-07    7  6  7  3
  1.933168277942e-03    7  6  7  4
 -5.062593448072e-07    7  6  7  5
  2.294501811494e-02    7  6  7  6
  5.528930529909e-01    7  7  1  1
 -2.351522167593e-03    7  7  2  1
  5.806049369397e-01    7  7  2  2
 -8.122370104833e-07    7  7  3  1
  3.993518348976e-07    7  7  3  2
  5.775593546916e-01    7  7  3  3
  3.164010309914e-03    7  7  4  1
  1.602665003464e-02    7  7  4  2
  5.861602805527e-06    7  7  4  3
  5.343766359223e-01    7  7  4  4
  1.146589569203e-07    7  7  5  1
  1.255884505308e-07    7  7  5  2
 -5.703439239255e-06    7  7  5  3
 -3.127406448970e-07    7  7  5  4
  5.567253507201e-01    7  7  5  5
 -1.117419297616e-02    7  7  6  1
 -7.690243258971e-03    7  7  6  2
  2.595671536142e-06    7  7  6  3
  8.540101817799e-03    7  7  6  4
 -8.669467066573e-07    7  7  6  5
  5.942401294657e-01    7  7  6  6
  1.342521432058e-03    7  7  7  1
  2.453478328615e-02    7  7  7  2
 -5.437642147553e-07    7  7  7  3
 -3.974243593779e-02    7  7  7  4
 -5.563015836552e-07    7  7  7  5
 -5.243641923241e-03    7  7  7  6
  5.373149269014e-01    7  7  7  7
  9.610229947007e-07    8  1  1  1
  3.759624924112e-08    8  1  2  1
  5.459520860268e-07    8  1  2  2
 -5.097556145089e-03    8  1  3  1
 -7.121838906187e-04    8  1  3  2
  1.042153192006e-06    8  1  3  3
  1.692325884874e-07    8  1  4  1
  2.076056020558e-07    8  1  4  2
 -3.277525596138e-04    8  1  4  3
  6.164795316950e-07    8  1  4  4
 -1.200726816718e-03    8  1  5  1
  1.545814590651e-03    8  1  5  2
 -1.358971257925e-08    8  1  5  3
  3.217962865862e-04    8  1  5  4
  1.066932614361e-06    8  1  5  5
 -2.227460269342e-07    8  1  6  1
 -1.114515006807e-07    8  1  6  2
  3.464615841311e-04    8  1  6  3
  9.186046677842e-07    8  1  6  4
  5.118685220612e-04    8  1  6  5
  1.674418469871e-06    8  1  6  6
  6.464783948640e-08    8  1  7  1
  6.413663988490e-07    8  1  7  2
 -7.302736553159e-04    8  1  7  3
 -1.746206151374e-07    8  1  7  4
  1.143940344616e-03    8  1  7  5
 -1.053547579602e-07    8  1  7  6
  2.856103639434e-07    8  1  7  7
  4.209694147702e-03    8  1  8  1
 -3.109171878677e-07    8  2  1  1
  2.421075469112e-08    8  2  2  1
  9.243169424941e-09    8  2  2  2
 -8.199218816879e-05    8  2  3  1
  4.450699550152e-04    8  2  3  2
  2.604365003794e-08    8  2  3  3
  5.609147288952e-07    8  2  4  1
 -2.347374226662e-07    8  2  4  2
 -7.705569069138e-04    8  2  4  3
  9.602841948219e-08    8  2  4  4
 -9.048954457129e-04    8  2  5  1
  3.663201041051e-07    8  2  5  2
 -5.071947795170e-08    8  2  5  3
 -6.114812069990e-05    8  2  5  4
  6.111585098873e-08    8  2  5  5
 -1.744805624526e-07    8  2  6  1
 -1.244918031671e-07    8  2  6  2
 -9.355633515838e-04    8  2  6  3
 -4.403457952007e-08    8  2  6  4
 -3.849229416554e-03    8  2  6  5
  7.590480464205e-08    8  2  6  6
  4.450171140557e-08    8  2  7  1
 -6.726827134709e-09    8  2  7  2
 -4.313472996695e-03    8  2  7  3
 -3.103359732858e-07    8  2  7  4
  2.122679266968e-06    8  2  7  5
 -1.159560894998e-07    8  2  7  6
  4.576952067912e-08    8  2  7  7
  6.310390053787e-04    8  2  8  1
  1.423784851725e-02    8  2  8  2
 -8.528204011091e-02    8  3  1  1
  2.707564570310e-03    8  3  2  1
 -4.369377987064e-02    8  3  2  2
 -5.436185457138e-08    8  3  3  1
 -4.978586461497e-08    8  3  3  2
 -1.021689761408e-01    8  3  3  3
 -7.789365834432e-03    8  3  4  1
 -1.088470734351e-02    8  3  4  2
  2.033255913633e-06    8  3  4  3
  2.502263025549e-02    8  3  4  4
 -3.172853660618e-07    8  3  5  1
 -7.267618441991e-07    8  3  5  2
  1.367625740264e-08    8  3  5  3
  1.227353597563e-06    8  3  5  4
 -9.455485257026e-02    8  3  5  5
 -1.062987821014e-02    8  3  6  1
 -2.054912464400e-03    8  3  6  2
  7.597156145651e-08    8  3  6  3
 -1.127397805040e-02    8  3  6  4
  8.936613234628e-08    8  3  6  5
 -9.545397691684e-02    8  3  6  6
  2.385711542806e-04    8  3  7  1
 -6.108364212651e-02    8  3  7  2
 -3.970229920932e-08    8  3  7  3
  1.591428049715e-03    8  3  7  4
 -2.347584746386e-08    8  3  7  5
  1.630852248145e-03    8  3  7  6
 -1.562159554993e-02    8  3  7  7
 -2.882036152712e-07    8  3  8  1
 -4.297111245873e-08    8  3  8  2
  2.174697033137e-02    8  3  8  3
 -1.394272591499e-06    8  4  1  1
  2.666355712817e-07    8  4  2  1
 -1.330944594655e-06    8  4  2  2
  6.527762160210e-04    8  4  3  1
  3.961033601240e-03    8  4  3  2
 -1.410021857899e-06    8  4  3  3
  1.921172297292e-06    8  4  4  1
 -1.055668031412e-07    8  4  4  2
  8.417470461350e-03    8  4  4  3
 -2.629648387394e-06    8  4  4  4
 -1.331162994841e-03    8  4  5  1
  2.547044773491e-05    8  4  5  2
 -4.204363389651e-07    8  4  5  3
 -1.687540377343e-04    8  4  5  4
 -1.743774470351e-06    8  4  5  5
  1.671769843242e-06    8  4  6  1
  1.566561018834e-07    8  4  6  2
 -4.736520969501e-03    8  4  6  3
 -6.729013271149e-07    8  4  6  4
 -1.228187581660e-02    8  4  6  5
 -2.236516380613e-06    8  4  6  6
  4.807383028612e-08    8  4  7  1
 -3.461901412553e-07    8  4  7  2
 -4.281674362673e-03    8  4  7  3
  6.159666596263e-07    8  4  7  4
  3.084052317222e-05    8  4  7  5
  1.903606776900e-07    8  4  7  6
 -1.426890465287e-06    8  4  7  7
 -8.051897078913e-03    8  4  8  1
 -4.474971848857e-03    8  4  8  2
  1.512333085114e-06    8  4  8  3
  1.313514765429e-01    8  4  8  4
  2.078054506921e-03    8  5  1  1
 -7.513240596791e-04    8  5  2  1
 -6.756508751316e-06    8  5  2  2
 -3.075088858381e-09    8  5  3  1
  1.279075048008e-07    8  5  3  2
 -1.249509556672e-05    8  5  3  3
 -9.891665160438e-06    8  5  4  1
 -3.038277108226e-05    8  5  4  2
 -8.982631640935e-08    8  5  4  3
 -5.562150350950e-05    8  5  4  4
  2.939013254310e-08    8  5  5  1
  1.102953336054e-08    8  5  5  2
 -5.771544356675e-03    8  5  5  3
 -3.168607740578e-07    8  5  5  4
 -1.474015249536e-05    8  5  5  5
 -1.064762528577e-03    8  5  6  1
 -1.102356369827e-03    8  5  6  2
 -9.201528992357e-08    8  5  6  3
 -2.483612828106e-03    8  5  6  4
 -4.164809715641e-07    8  5  6  5
 -1.997645898385e-03    8  5  6  6
 -6.572837877503e-04    8  5  7  1
 -7.813554838935e-06    8  5  7  2
  2.143563118005e-07    8  5  7  3
 -9.730590013679e-06    8  5  7  4
  1.084302176615e-08    8  5  7  5
  3.458011534290e-04    8  5  7  6
  9.501440504035e-07    8  5  7  7
 -1.351930116042e-07    8  5  8  1
 -1.285625840633e-07    8  5  8  2
  2.894783581878e-06    8  5  8  3
  1.367214832583e-06    8  5  8  4
  1.153135548327e-03    8  5  8  5
 -1.216969794470e-06    8  6  1  1
  2.111998104104e-08    8  6  2  1
 -8.801675633567e-07    8  6  2  2
  4.236847204109e-04    8  6  3  1
 -3.965076535456e-04    8  6  3  2
 -1.469852760504e-06    8  6  3  3
  6.839833618483e-07    8  6  4  1
  3.073106496708e-08    8  6  4  2
 -2.863193418839e-03    8  6  4  3
 -6.066958403675e-07    8  6  4  4
 -3.597445122205e-04    8  6  5  1
 -1.115409620636e-03    8  6  5  2
 -2.199479298739e-08    8  6  5  3
 -1.601115646762e-03    8  6  5  4
 -1.496808119902e-06    8  6  5  5
  8.714366242731e-07    8  6  6  1
  1.248336367312e-07    8  6  6  2
 -4.068277058924e-03    8  6  6  3
 -5.886990786518e-07    8  6  6  4
 -3.589069529381e-03    8  6  6  5
 -1.885523114608e-06    8  6  6  6
 -5.898167918721e-08    8  6  7  1
 -5.649197905764e-07    8  6  7  2
  1.161266660005e-03    8  6  7  3
  4.680676858319e-07    8  6  7  4
 -3.173642738301e-04    8  6  7  5
  2.157506498030e-07    8  6  7  6
 -7.553098137588e-07    8  6  7  7
 -1.836966651606e-03    8  6  8  1
  1.151705800542e-04    8  6  8  2
  1.196317841811e-07    8  6  8  3
 -9.665638563813e-03    8  6  8  4
 -3.423478959075e-08    8  6  8  5
  3.352297698449e-03    8  6  8  6
  1.726339131096e-07    8  7  1  1
  8.745832742709e-09    8  7  2  1
  6.537391428727e-08    8  7  2  2
 -1.622987075734e-03    8  7  3  1
 -5.808022080296e-03    8  7  3  2
 -9.531104542851e-09    8  7  3  3
 -7.538427064138e-07    8  7  4  1
  2.985431820438e-07    8  7  4  2
  5.706285405890e-06    8  7  4  3
  8.495122309979e-07    8  7  4  4
 -3.081725687370e-04    8  7  5  1
 -3.597376590975e-06    8  7  5  2
  4.716594728349e-07    8  7  5  3
  4.814823782076e-05    8  7  5  4
  4.808551867676e-08    8  7  5  5
  1.772310066685e-07    8  7  6  1
  1.114333709083e-07    8  7  6  2
  2.075900797164e-03    8  7  6  3
  4.674361612761e-07    8  7  6  4
  5.238944094729e-03    8  7  6  5
  2.215784732462e-07    8  7  6  6
 -2.008976053484e-08    8  7  7  1
  6.335735045563e-08    8  7  7  2
  1.996452132824e-03    8  7  7  3
  3.157156396503e-07    8  7  7  4
 -1.214439734167e-06    8  7  7  5
  9.057468044864e-08    8  7  7  6
  1.544476036725e-08    8  7  7  7
  2.608879651350e-04    8  7  8  1
 -1.581643545593e-02    8  7  8  2
 -1.250661853677e-07    8  7  8  3
 -1.036160581870e-02    8  7  8  4
 -1.687663130188e-08    8  7  8  5
  1.000178065379e-03    8  7  8  6
  2.157254035991e-02    8  7  8  7
  3.304147236997e-01    8  8  1  1
  1.697445288657e-03    8  8  2  1
  4.579904541548e-01    8  8  2  2
 -7.000208466680e-07    8  8  3  1
 -1.794887292687e-07    8  8  3  2
  3.231161837815e-01    8  8  3  3
 -2.496870466563e-02    8  8  4  1
 -2.911341809161e-02    8  8  4  2
  8.792350313116e-06    8  8  4  3
  6.746065390295e-01    8  8  4  4
 -7.392995390816e-07    8  8  5  1
 -7.197516825097e-07    8  8  5  2
  3.160034440163e-06    8  8  5  3
  4.414320438357e-06    8  8  5  4
  3.057454694129e-01    8  8  5  5
 -3.620776219215e-02    8  8  6  1
 -6.189545606663e-03    8  8  6  2
  1.750660456726e-06    8  8  6  3
 -2.714667802033e-02    8  8  6  4
  1.283559840430e-07    8  8  6  5
  3.334376669845e-01    8  8  6  6
 -2.169276408624e-03    8  8  7  1
 -1.623564510249e-01    8  8  7  2
 -1.875279364155e-07    8  8  7  3
 -1.175921515008e-02    8  8  7  4
  4.422749553068e-07    8  8  7  5
  1.268845827810e-03    8  8  7  6
  4.930607900432e-01    8  8  7  7
 -4.509361787880e-07    8  8  8  1
 -1.409903934819e-09    8  8  8  2
  4.880486332305e-02    8  8  8  3
 -4.774900348282e-07    8  8  8  4
  7.457447717388e-06    8  8  8  5
 -6.587419371233e-08    8  8  8  6
 -5.609878154952e-08    8  8  8  7
  7.484292527338e-01    8  8  8  8
  1.549673469419e-03    9  1  1  1
  8.950547961898e-03    9  1  2  1
  1.364069246620e-04    9  1  2  2
 -2.137134348849e-07    9  1  3  1
  1.660450570489e-08    9  1  3  2
 -4.228448202871e-03    9  1  3  3
  6.371229508561e-04    9  1  4  1
  2.512744176311e-03    9  1  4  2
 -1.587728930333e-07    9  1  4  3
  2.199148410665e-04    9  1  4  4
 -3.121180492324e-07    9  1  5  1
  6.532991112858e-08    9  1  5  2
  2.446888389512e-03    9  1  5  3
  1.205377886468e-06    9  1  5  4
 -3.288732149991e-04    9  1  5  5
  6.899441319468e-03    9  1  6  1
  2.840000547909e-03    9  1  6  2
 -7.943071692268e-08    9  1  6  3
  3.223460726770e-03    9  1  6  4
 -1.205837869826e-06    9  1  6  5
  1.163108225186e-02    9  1  6  6
  4.424697475836e-03    9  1  7  1
 -2.782007025550e-04    9  1  7  2
  2.180086192963e-08    9  1  7  3
 -1.331652334363e-03    9  1  7  4
 -8.229456986370e-08    9  1  7  5
  3.227606520054e-04    9  1  7  6
  3.935589316365e-04    9  1  7  7
 -4.982138821412e-08    9  1  8  1
  3.096084711382e-08    9  1  8  2
  1.055397330499e-03    9  1  8  3
  1.277937991995e-07    9  1  8  4
 -6.708178388454e-04    9  1  8  5
  9.132240316086e-09    9  1  8  6
 -2.215723900676e-09    9  1  8  7
  9.037338932806e-04    9  1  8  8
  1.198459564322e-02    9  1  9  1
  1.664206352445e-01    9  2  1  1
 -2.004416025320e-03    9  2  2  1
  9.631619776372e-02    9  2  2  2
  8.243290497297e-08    9  2  3  1
  2.414691944543e-07    9  2  3  2
  1.832372167979e-01    9  2  3  3
  1.556500073514e-02    9  2  4  1
  2.136755121386e-02    9  2  4  2
 -2.919534936253e-06    9  2  4  3
 -3.249874634870e-02    9  2  4  4
  5.368154937183e-07    9  2  5  1
  6.049780323231e-07    9  2  5  2
  2.301601142254e-06    9  2  5  3
 -2.511198553518e-06    9  2  5  4
  1.797891539568e-01    9  2  5  5
  1.996906021656e-02    9  2  6  1
  2.315599508566e-03    9  2  6  2
 -5.793423799211e-08    9  2  6  3
  2.075276739697e-02    9  2  6  4
 -2.328320212634e-07    9  2  6  5
  1.953398897241e-01    9  2  6  6
  1.123848497991e-03    9  2  7  1
  1.206726434800e-01    9  2  7  2
 -7.854600551229e-08    9  2  7  3
 -6.545310515020e-03    9  2  7  4
 -3.205235959796e-07    9  2  7  5
 -3.551167190930e-03    9  2  7  6
  3.695072847203e-02    9  2  7  7
  3.893960071057e-07    9  2  8  1
 -1.498150112075e-08    9  2  8  2
 -3.480051915968e-02    9  2  8  3
 -4.626994075059e-07    9  2  8  4
 -5.789760464729e-06    9  2  8  5
 -4.243407434904e-07    9  2  8  6
  5.514252597081e-08    9  2  8  7
 -6.324812773973e-02    9  2  8  8
 -4.332817861053e-04    9  2  9  1
  7.378803867736e-02    9  2  9  2
  5.345281294349e-07    9  3  1  1
  5.476483324660e-08    9  3  2  1
 -6.062712445557e-08    9  3  2  2
  2.785914314438e-03    9  3  3  1
  7.420156753164e-03    9  3  3  2
  2.260855872493e-08    9  3  3  3
  1.377771075142e-07    9  3  4  1
 -2.782909760904e-07    9  3  4  2
 -6.941251806050e-04    9  3  4  3
 -1.022096903069e-06    9  3  4  4
  2.518937241176e-03    9  3  5  1
 -1.482685514893e-06    9  3  5  2
 -6.328534572564e-07    9  3  5  3
  5.002671153044e-05    9  3  5  4
 -3.809539305293e-09    9  3  5  5
 -2.451179983339e-08    9  3  6  1
  7.276680881611e-09    9  3  6  2
 -1.101288795598e-03    9  3  6  3
 -4.391966299952e-07    9  3  6  4
 -8.895802756731e-04    9  3  6  5
  6.716681646291e-08    9  3  6  6
 -3.790070562949e-08    9  3  7  1
  7.441506266845e-08    9  3  7  2
  3.361798494493e-03    9  3  7  3
  5.096687899541e-07    9  3  7  4
 -5.943620739319e-06    9  3  7  5
  6.828002939386e-08    9  3  7  6
 -1.210221693017e-07    9  3  7  7
 -3.776803796582e-04    9  3  8  1
 -1.269672399956e-03    9  3  8  2
 -2.366169536920e-08    9  3  8  3
 -2.663670528128e-04    9  3  8  4
  8.672101914579e-08    9  3  8  5
  1.544208943640e-04    9  3  8  6
 -2.169571891834e-04    9  3  8  7
 -1.462397782652e-07    9  3  8  8
  6.956384277036e-08    9  3  9  1
  5.160565471431e-08    9  3  9  2
  8.324438997871e-03    9  3  9  3
  2.678524678710e-03    9  4  1  1
  2.669828213947e-03    9  4  2  1
 -1.402582526339e-02    9  4  2  2
  5.806005539328e-07    9  4  3  1
  1.851220830370e-09    9  4  3  2
 -5.090071902826e-03    9  4  3  3
  1.257287913237e-03    9  4  4  1
 -1.527042539453e-02    9  4  4  2
 -1.630966521812e-06    9  4  4  3
 -1.819827621382e-02    9  4  4  4
  1.514873203138e-06    9  4  5  1
 -2.221933744234e-07    9  4  5  2
  4.721401429399e-05    9  4  5  3
  6.756287383535e-09    9  4  5  4
  1.756639841255e-03    9  4  5  5
  1.275946983807e-02    9  4  6  1
  6.706111654886e-03    9  4  6  2
 -4.857091975176e-07    9  4  6  3
  1.631074943002e-03    9  4  6  4
  7.395891657470e-06    9  4  6  5
  2.817511177598e-04    9  4  6  6
 -1.295885186669e-03    9  4  7  1
  1.089913311372e-02    9  4  7  2
  9.282358387297e-08    9  4  7  3
  3.636084561352e-02    9  4  7  4
  3.862838261206e-07    9  4  7  5
  7.875515883575e-04    9  4  7  6
 -2.223622896624e-02    9  4  7  7
  1.137154045569e-07    9  4  8  1
 -2.347402954706e-07    9  4  8  2
 -4.123541270953e-03    9  4  8  3
  2.158444931119e-07    9  4  8  4
 -2.574369539992e-05    9  4  8  5
 -1.356457259687e-08    9  4  8  6
 -1.243793713886e-08    9  4  8  7
 -2.687922359812e-02    9  4  8  8
 -3.604080457728e-05    9  4  9  1
  6.751238755912e-03    9  4  9  2
 -2.638045076471e-07    9  4  9  3
  1.830972830021e-02    9  4  9  4
 -9.629363332656e-07    9  5  1  1
  6.190461050788e-08    9  5  2  1
 -2.230373964876e-07    9  5  2  2
 -4.281425022596e-03    9  5  3  1
 -2.029187926455e-06    9  5  3  2
  6.668167255827e-07    9  5  3  3
  8.541929396673e-07    9  5  4  1
 -3.167658865467e-07    9  5  4  2
 -1.008368705558e-04    9  5  4  3
 -1.108799199709e-07    9  5  4  4
 -2.262793370586e-04    9  5  5  1
  1.250618693459e-02    9  5  5  2
  2.004485688708e-08    9  5  5  3
  3.430975745116e-03    9  5  5  4
 -4.760615803322e-07    9  5  5  5
 -6.507816289837e-07    9  5  6  1
 -2.786250799303e-08    9  5  6  2
 -8.335109481159e-05    9  5  6  3
  3.658305926662e-06    9  5  6  4
 -1.045605349194e-04    9  5  6  5
 -3.263021634906e-07    9  5  6  6
 -8.163916152306e-08    9  5  7  1
 -4.452313411288e-08    9  5  7  2
  7.478338292206e-06    9  5  7  3
  4.422197573810e-07    9  5  7  4
  4.265622720969e-03    9  5  7  5
 -2.257129952307e-07    9  5  7  6
 -3.223393561383e-07    9  5  7  7
  4.797586244220e-04    9  5  8  1
  1.526563979360e-07    9  5  8  2
 -2.130390791568e-07    9  5  8  3
  4.898756757721e-06    9  5  8  4
  2.055599212408e-08    9  5  8  5
 -5.697701753193e-04    9  5  8  6
 -2.547036819450e-06    9  5  8  7