#INFO: **** input file is /projects/bamu3429/BENCHMARK/fresh_atoms/MRPT/vqz/monoxides/CuO/mrpt.py ****
import json
from pyscf import gto,scf,mcscf, fci, lo, ci, cc
from pyscf.scf import ROHF, UHF,ROKS
import numpy as np
import pandas as pd

# THIS IS WERE IT STARTS ====================================

df=json.load(open("../../../trail.json"))

spins={'ScO':1, 'TiO':2, 'VO':3, 'CrO':4, 'MnO':5, 'FeO':4, 'CuO':1}

nd={'Sc':(1,0), 'Ti':(2,0), 'V':(3,0), 'Cr':(5,0), 'Mn':(5,0), 'Fe':(5,1), 'Cu':(5,4)}

cas={'Sc':3, 'Ti':4, 'V':5, 'Cr':6, 'Mn':7, 'Fe':8, 'Cu':11}

re={'ScO':1.668, 'TiO':1.623, 'VO':1.591, 'CrO':1.621, 'MnO':1.648, 'FeO':1.616, 'CuO':1.725}

datacsv={}
for nm in ['basis','charge','method','molecule','pseudopotential',
           'totalenergy','totalenergy-stocherr','totalenergy-syserr']:
  datacsv[nm]=[]

basis='vqz'
element='Cu'

mol=gto.Mole()
mol.ecp={}
mol.basis={}
for el in [element,'O']:
  mol.ecp[el]=gto.basis.parse_ecp(df[el]['ecp'])
  mol.basis[el]=gto.basis.parse(df[el][basis])
mol.charge=0
mol.spin=spins[element+'O']
mol.build(atom="%s 0. 0. 0.; O 0. 0. %g"%(element,re[element+'O']),verbose=4)

m=ROHF(mol)
m.level_shift=1000.0
dm=m.from_chk("../../../../HF/monoxides/"+element+basis+"0.chk")
hf=m.kernel(dm)
m.analyze()

from pyscf.shciscf import shci
mc = shci.SHCISCF(m, 9, 4+cas[element])
#mc.fcisolver.conv_tol = 1e-14
mc.fcisolver.mpiprefix="mpirun -np 28"
mc.fcisolver.num_thrds=12
mc.verbose = 4
cas=mc.kernel()[0]
 
from pyscf.icmpspt import icmpspt
pt=icmpspt.icmpspt(mc,rdmM=500, PTM=1000,\
                          pttype="MRLCC",\
                          third_order=True,\
                          fully_ic=True,\
                          do_dm4=True)

datacsv['basis'].append(basis)
datacsv['charge'].append(0)
datacsv['method'].append('MRPT')
datacsv['molecule'].append(element)
datacsv['pseudopotential'].append('trail')
datacsv['totalenergy'].append(cas+pt)
datacsv['totalenergy-stocherr'].append(0.0)
datacsv['totalenergy-syserr'].append(0.0)
pd.DataFrame(datacsv).to_csv(element+".csv",index=False)

#INFO: ******************** input file end ********************


System: ('Linux', 'bnode0306.rc.int.colorado.edu', '3.10.0-514.41.1.el7.x86_64', '#1 SMP Wed Jan 17 10:26:16 EST 2018', 'x86_64', 'x86_64')  Threads 28
Python 2.7.11 (default, Mar 22 2016, 01:42:54) 
[GCC Intel(R) C++ gcc 4.8 mode]
numpy 1.11.1  scipy 0.17.1
Date: Wed Mar 28 15:26:42 2018
PySCF version 1.4
PySCF path  /projects/bamu3429/softwares/pyscf_uptodate/pyscf
GIT ORIG_HEAD e2292e6edec2b0e0024c21b81de03db1d7bd4121
GIT HEAD      ref: refs/heads/master
GIT master branch  f3591ef22170896a4cdc2aadaa6f5da388ffcadb

[INPUT] VERBOSE 4
[INPUT] num atoms = 2
[INPUT] num electrons = 25
[INPUT] charge = 0
[INPUT] spin (= nelec alpha-beta = 2S) = 1
[INPUT] symmetry False subgroup None
[INPUT]  1 Cu     0.000000000000   0.000000000000   0.000000000000 AA    0.000000000000   0.000000000000   0.000000000000 Bohr
[INPUT]  2 O      0.000000000000   0.000000000000   1.725000000000 AA    0.000000000000   0.000000000000   3.259777564875 Bohr
[INPUT] ---------------- BASIS SET ---------------- 
[INPUT] l, kappa, [nprim/nctr], expnt,             c_1 c_2 ...
[INPUT] Cu
[INPUT] 0    0    [12   /1   ]  56.69692001       0.003858
                                20.1703448        -1.511163
                                16.89311889       5.262467
                                14.81117613       -4.140408
                                6.02025146        0.066973
                                2.45829434        0.59039
                                1.29773244        0.435
                                0.73258474        0.171005
                                0.2960966         0.014654
                                0.13350445        -0.001059
                                0.05975279        0.002343
                                0.0277617         7.2e-05
[INPUT] 0    0    [12   /1   ]  56.69692001       -0.000329
                                20.1703448        0.271255
                                16.89311889       -0.991333
                                14.81117613       0.80309
                                6.02025146        -0.009798
                                2.45829434        -0.162788
                                1.29773244        -0.157463
                                0.73258474        -0.146178
                                0.2960966         0.068557
                                0.13350445        0.45286
                                0.05975279        0.4989
                                0.0277617         0.13834
[INPUT] 0    0    [12   /1   ]  56.69692001       -0.002551
                                20.1703448        1.12923
                                16.89311889       -4.208771
                                14.81117613       3.504395
                                6.02025146        -0.310068
                                2.45829434        -0.948573
                                1.29773244        0.107692
                                0.73258474        0.283225
                                0.2960966         0.768789
                                0.13350445        0.404068
                                0.05975279        -0.49902
                                0.0277617         -0.540161
[INPUT] 0    0    [12   /1   ]  56.69692001       0.007574
                                20.1703448        -2.35403
                                16.89311889       8.801928
                                14.81117613       -7.424941
                                6.02025146        1.124887
                                2.45829434        1.860663
                                1.29773244        -1.702448
                                0.73258474        -0.943294
                                0.2960966         0.405131
                                0.13350445        1.184629
                                0.05975279        -0.32669
                                0.0277617         -0.642304
[INPUT] 0    0    [12   /1   ]  56.69692001       0.007778
                                20.1703448        -3.004154
                                16.89311889       12.239766
                                14.81117613       -11.033489
                                6.02025146        3.580468
                                2.45829434        -0.483578
                                1.29773244        -3.918947
                                0.73258474        3.017896
                                0.2960966         1.202344
                                0.13350445        -1.805167
                                0.05975279        -0.196904
                                0.0277617         0.841489
[INPUT] 0    0    [1    /1   ]  0.0277617            1
[INPUT] 0    0    [1    /1   ]  0.01289834           1
[INPUT] 1    0    [12   /1   ]  84.11621248       0.00021
                                41.67010486       -0.003354
                                20.84027636       0.054507
                                13.1175259        -0.185677
                                7.96834211        0.1136
                                4.08681185        0.286879
                                2.29416473        0.386568
                                1.21038981        0.304256
                                0.60503887        0.104511
                                0.23373223        0.008916
                                0.0905483         -0.000333
                                0.03498335        0.000208
[INPUT] 1    0    [12   /1   ]  84.11621248       4e-06
                                41.67010486       0.000359
                                20.84027636       -0.009409
                                13.1175259        0.03575
                                7.96834211        -0.025333
                                4.08681185        -0.064167
                                2.29416473        -0.086609
                                1.21038981        -0.086359
                                0.60503887        0.027529
                                0.23373223        0.324015
                                0.0905483         0.541358
                                0.03498335        0.260105
[INPUT] 1    0    [12   /1   ]  84.11621248       -9.7e-05
                                41.67010486       -0.001093
                                20.84027636       0.054854
                                13.1175259        -0.302416
                                7.96834211        0.3704
                                4.08681185        0.7815
                                2.29416473        -0.133515
                                1.21038981        -0.829877
                                0.60503887        -0.276498
                                0.23373223        0.679878
                                0.0905483         0.342509
                                0.03498335        0.000334
[INPUT] 1    0    [12   /1   ]  84.11621248       0.000342
                                41.67010486       -0.003336
                                20.84027636       0.098476
                                13.1175259        -0.655108
                                7.96834211        1.275801
                                4.08681185        0.700436
                                2.29416473        -1.674683
                                1.21038981        -0.445629
                                0.60503887        1.497855
                                0.23373223        -0.162223
                                0.0905483         -0.632066
                                0.03498335        0.018744
[INPUT] 1    0    [12   /1   ]  84.11621248       0.004681
                                41.67010486       -0.030582
                                20.84027636       0.124236
                                13.1175259        0.21778
                                7.96834211        -1.536679
                                4.08681185        1.170732
                                2.29416473        0.932627
                                1.21038981        -1.845524
                                0.60503887        0.707649
                                0.23373223        0.494903
                                0.0905483         -0.575064
                                0.03498335        0.021878
[INPUT] 1    0    [1    /1   ]  0.03498335           1
[INPUT] 1    0    [1    /1   ]  0.01351582           1
[INPUT] 2    0    [10   /1   ]  85.06963135       0.000306
                                37.22826442       -0.00619
                                15.61164981       0.135912
                                9.50636668        0.057336
                                5.30208049        0.240495
                                2.49612499        0.317037
                                1.13949453        0.29791
                                0.51100337        0.208077
                                0.230497          0.090388
                                0.11275594        0.026692
[INPUT] 2    0    [10   /1   ]  85.06963135       -4e-05
                                37.22826442       0.005773
                                15.61164981       -0.159536
                                9.50636668        -0.06682
                                5.30208049        -0.377892
                                2.49612499        -0.225348
                                1.13949453        0.197365
                                0.51100337        0.40543
                                0.230497          0.287219
                                0.11275594        0.134596
[INPUT] 2    0    [10   /1   ]  85.06963135       0.000844
                                37.22826442       0.001909
                                15.61164981       -0.161123
                                9.50636668        -0.138816
                                5.30208049        -0.495349
                                2.49612499        0.338929
                                1.13949453        0.642294
                                0.51100337        -0.062501
                                0.230497          -0.424292
                                0.11275594        -0.330264
[INPUT] 2    0    [10   /1   ]  85.06963135       0.004172
                                37.22826442       -0.012359
                                15.61164981       -0.197125
                                9.50636668        -0.584626
                                5.30208049        0.008748
                                2.49612499        1.205337
                                1.13949453        -0.519891
                                0.51100337        -0.635552
                                0.230497          0.306963
                                0.11275594        0.434075
[INPUT] 2    0    [1    /1   ]  0.11275594           1
[INPUT] 2    0    [1    /1   ]  0.05515864           1
[INPUT] 3    0    [1    /1   ]  6.93543              1
[INPUT] 3    0    [1    /1   ]  2.30775              1
[INPUT] 3    0    [1    /1   ]  0.767897             1
[INPUT] 3    0    [1    /1   ]  0.25551545           1
[INPUT] 4    0    [1    /1   ]  6.503244             1
[INPUT] 4    0    [1    /1   ]  2.204905             1
[INPUT] 4    0    [1    /1   ]  0.74756629           1
[INPUT] 5    0    [1    /1   ]  5.193885             1
[INPUT] 5    0    [1    /1   ]  1.76097081           1
[INPUT] O
[INPUT] 0    0    [10   /1   ]  57.663349         -0.002794
                                35.726816         0.023976
                                22.453757         -0.115974
                                14.732301         0.288033
                                9.739917          -0.274786
                                5.042008          -0.083789
                                2.157818          0.063778
                                1.002916          0.410182
                                0.421839          0.504044
                                0.173041          0.172152
[INPUT] 0    0    [1    /1   ]  1.70747              1
[INPUT] 0    0    [1    /1   ]  0.617491             1
[INPUT] 0    0    [1    /1   ]  0.223309             1
[INPUT] 0    0    [1    /1   ]  0.084592             1
[INPUT] 1    0    [10   /1   ]  52.47406          -0.000522
                                32.138432         0.004857
                                19.458579         -0.027749
                                11.839344         0.074258
                                7.91003           0.014369
                                3.670858          0.153479
                                1.53966           0.283685
                                0.647119          0.358201
                                0.267853          0.29559
                                0.107198          0.104889
[INPUT] 1    0    [1    /1   ]  1.345435             1
[INPUT] 1    0    [1    /1   ]  0.458358             1
[INPUT] 1    0    [1    /1   ]  0.156151             1
[INPUT] 1    0    [1    /1   ]  0.045837             1
[INPUT] 2    0    [1    /1   ]  3.661538             1
[INPUT] 2    0    [1    /1   ]  1.279275             1
[INPUT] 2    0    [1    /1   ]  0.446952             1
[INPUT] 2    0    [1    /1   ]  0.148191             1
[INPUT] 3    0    [1    /1   ]  2.598839             1
[INPUT] 3    0    [1    /1   ]  0.849032             1
[INPUT] 3    0    [1    /1   ]  0.310222             1
[INPUT] 4    0    [1    /1   ]  1.838653             1
[INPUT] 4    0    [1    /1   ]  0.706784             1
nuclear repulsion = 34.9717113303652
number of shells = 48
number of NR pGTOs = 650
number of NR cGTOs = 214
basis = {'O': [[0, [57.663349, -0.002794], [35.726816, 0.023976], [22.453757, -0.115974], [14.732301, 0.288033], [9.739917, -0.274786], [5.042008, -0.083789], [2.157818, 0.063778], [1.002916, 0.410182], [0.421839, 0.504044], [0.173041, 0.172152]], [0, [1.70747, 1.0]], [0, [0.617491, 1.0]], [0, [0.223309, 1.0]], [0, [0.084592, 1.0]], [1, [52.47406, -0.000522], [32.138432, 0.004857], [19.458579, -0.027749], [11.839344, 0.074258], [7.91003, 0.014369], [3.670858, 0.153479], [1.53966, 0.283685], [0.647119, 0.358201], [0.267853, 0.29559], [0.107198, 0.104889]], [1, [1.345435, 1.0]], [1, [0.458358, 1.0]], [1, [0.156151, 1.0]], [1, [0.045837, 1.0]], [2, [3.661538, 1.0]], [2, [1.279275, 1.0]], [2, [0.446952, 1.0]], [2, [0.148191, 1.0]], [3, [2.598839, 1.0]], [3, [0.849032, 1.0]], [3, [0.310222, 1.0]], [4, [1.838653, 1.0]], [4, [0.706784, 1.0]]], 'Cu': [[0, [56.69692001, 0.003858], [20.1703448, -1.511163], [16.89311889, 5.262467], [14.81117613, -4.140408], [6.02025146, 0.066973], [2.45829434, 0.59039], [1.29773244, 0.435], [0.73258474, 0.171005], [0.2960966, 0.014654], [0.13350445, -0.001059], [0.05975279, 0.002343], [0.0277617, 7.2e-05]], [0, [56.69692001, -0.000329], [20.1703448, 0.271255], [16.89311889, -0.991333], [14.81117613, 0.80309], [6.02025146, -0.009798], [2.45829434, -0.162788], [1.29773244, -0.157463], [0.73258474, -0.146178], [0.2960966, 0.068557], [0.13350445, 0.45286], [0.05975279, 0.4989], [0.0277617, 0.13834]], [0, [56.69692001, -0.002551], [20.1703448, 1.12923], [16.89311889, -4.208771], [14.81117613, 3.504395], [6.02025146, -0.310068], [2.45829434, -0.948573], [1.29773244, 0.107692], [0.73258474, 0.283225], [0.2960966, 0.768789], [0.13350445, 0.404068], [0.05975279, -0.49902], [0.0277617, -0.540161]], [0, [56.69692001, 0.007574], [20.1703448, -2.35403], [16.89311889, 8.801928], [14.81117613, -7.424941], [6.02025146, 1.124887], [2.45829434, 1.860663], [1.29773244, -1.702448], [0.73258474, -0.943294], [0.2960966, 0.405131], [0.13350445, 1.184629], [0.05975279, -0.32669], [0.0277617, -0.642304]], [0, [56.69692001, 0.007778], [20.1703448, -3.004154], [16.89311889, 12.239766], [14.81117613, -11.033489], [6.02025146, 3.580468], [2.45829434, -0.483578], [1.29773244, -3.918947], [0.73258474, 3.017896], [0.2960966, 1.202344], [0.13350445, -1.805167], [0.05975279, -0.196904], [0.0277617, 0.841489]], [0, [0.0277617, 1.0]], [0, [0.01289834, 1.0]], [1, [84.11621248, 0.00021], [41.67010486, -0.003354], [20.84027636, 0.054507], [13.1175259, -0.185677], [7.96834211, 0.1136], [4.08681185, 0.286879], [2.29416473, 0.386568], [1.21038981, 0.304256], [0.60503887, 0.104511], [0.23373223, 0.008916], [0.0905483, -0.000333], [0.03498335, 0.000208]], [1, [84.11621248, 4e-06], [41.67010486, 0.000359], [20.84027636, -0.009409], [13.1175259, 0.03575], [7.96834211, -0.025333], [4.08681185, -0.064167], [2.29416473, -0.086609], [1.21038981, -0.086359], [0.60503887, 0.027529], [0.23373223, 0.324015], [0.0905483, 0.541358], [0.03498335, 0.260105]], [1, [84.11621248, -9.7e-05], [41.67010486, -0.001093], [20.84027636, 0.054854], [13.1175259, -0.302416], [7.96834211, 0.3704], [4.08681185, 0.7815], [2.29416473, -0.133515], [1.21038981, -0.829877], [0.60503887, -0.276498], [0.23373223, 0.679878], [0.0905483, 0.342509], [0.03498335, 0.000334]], [1, [84.11621248, 0.000342], [41.67010486, -0.003336], [20.84027636, 0.098476], [13.1175259, -0.655108], [7.96834211, 1.275801], [4.08681185, 0.700436], [2.29416473, -1.674683], [1.21038981, -0.445629], [0.60503887, 1.497855], [0.23373223, -0.162223], [0.0905483, -0.632066], [0.03498335, 0.018744]], [1, [84.11621248, 0.004681], [41.67010486, -0.030582], [20.84027636, 0.124236], [13.1175259, 0.21778], [7.96834211, -1.536679], [4.08681185, 1.170732], [2.29416473, 0.932627], [1.21038981, -1.845524], [0.60503887, 0.707649], [0.23373223, 0.494903], [0.0905483, -0.575064], [0.03498335, 0.021878]], [1, [0.03498335, 1.0]], [1, [0.01351582, 1.0]], [2, [85.06963135, 0.000306], [37.22826442, -0.00619], [15.61164981, 0.135912], [9.50636668, 0.057336], [5.30208049, 0.240495], [2.49612499, 0.317037], [1.13949453, 0.29791], [0.51100337, 0.208077], [0.230497, 0.090388], [0.11275594, 0.026692]], [2, [85.06963135, -4e-05], [37.22826442, 0.005773], [15.61164981, -0.159536], [9.50636668, -0.06682], [5.30208049, -0.377892], [2.49612499, -0.225348], [1.13949453, 0.197365], [0.51100337, 0.40543], [0.230497, 0.287219], [0.11275594, 0.134596]], [2, [85.06963135, 0.000844], [37.22826442, 0.001909], [15.61164981, -0.161123], [9.50636668, -0.138816], [5.30208049, -0.495349], [2.49612499, 0.338929], [1.13949453, 0.642294], [0.51100337, -0.062501], [0.230497, -0.424292], [0.11275594, -0.330264]], [2, [85.06963135, 0.004172], [37.22826442, -0.012359], [15.61164981, -0.197125], [9.50636668, -0.584626], [5.30208049, 0.008748], [2.49612499, 1.205337], [1.13949453, -0.519891], [0.51100337, -0.635552], [0.230497, 0.306963], [0.11275594, 0.434075]], [2, [0.11275594, 1.0]], [2, [0.05515864, 1.0]], [3, [6.93543, 1.0]], [3, [2.30775, 1.0]], [3, [0.767897, 1.0]], [3, [0.25551545, 1.0]], [4, [6.503244, 1.0]], [4, [2.204905, 1.0]], [4, [0.74756629, 1.0]], [5, [5.193885, 1.0]], [5, [1.76097081, 1.0]]]}
ecp = {'O': [2, [[-1, [[], [[10.27717748, 6.0]], [[15.99566749, 1232.50197768], [10.46901775, -696.47008301], [14.6384801, -2654.22657081], [12.57591181, 2101.67732548]], [[7.77739102, 61.66306486]]]], [0, [[], [], [[12.39426073, -656683.37638839], [12.38126171, 657858.57667068], [8.57671033, 511.50098405], [9.89256508, -2579.54665641], [28.05641604, -57.68129584], [17.24753607, 970.30940152]], []]], [1, [[], [], [[14.78918914, -363027.24258186], [14.82014018, 361852.52314043], [22.89622221, -1300.20069256], [8.51331893, -181.96869573], [11.48609758, 2194.87589959], [27.22017524, 451.19906206]], []]]]], 'Cu': [10, [[-1, [[], [[19.87662576, 19.0]], [[18.71397328, 13322.8315411], [8.24597653, -143.81933419], [17.99726398, -6835.89401414], [19.50653533, -6413.73731394]], [[9.35936389, 377.6558895]]]], [0, [[], [], [[12.04327682, 217421.85846016], [11.98352277, -215987.47192743], [9.67744501, 1647.53099822], [17.5806873, -5124.79596488], [17.5092588, -963.5691239], [19.80724162, 3071.81011765]], []]], [1, [[], [], [[15.48559732, 189560.54470794], [15.42430413, -181115.65838446], [17.81980355, -1937.67548293], [17.69074392, -2335.92086442], [17.98867265, -8634.52846732], [19.82460345, 4504.58524733]], []]], [2, [[], [], [[10.91448054, -5224.34215851], [14.69969344, -3653.65459704], [11.52370333, 8159.25189768], [19.81153965, -2763.94279097], [18.0197982, 6020.80732635], [14.46480052, -2560.14492979]], []]]]]}
CPU time:         3.58


******** <class 'pyscf.scf.rohf.ROHF'> flags ********
method = ROHF
initial guess = minao
damping factor = 0
level shift factor = 1000.0
DIIS = <class 'pyscf.scf.diis.CDIIS'>
DIIS start cycle = 1
DIIS space = 8
SCF tol = 1e-09
SCF gradient tol = None
max. SCF cycles = 50
direct_scf = True
direct_scf_tol = 1e-13
chkfile to save SCF result = /projects/bamu3429/BENCHMARK/fresh_atoms/MRPT/vqz/monoxides/CuO/tmpTrKbaD
max_memory 4000 MB (current use 126 MB)
num. doubly occ = 12  num. singly occ = 1
Set gradient conv threshold to 3.16228e-05
init E= -212.240914281023
  HOMO = 499.857411503251  LUMO = 999.987841690538
cycle= 1 E= -212.240914281024  delta_E= -1.99e-13  |g|= 6.49e-06  |ddm|= 2.25e-08
  HOMO = -0.142588496317326  LUMO = -0.012158309350481
Extra cycle  E= -212.240914281032  delta_E= -7.87e-12  |g|= 1.6e-06  |ddm|= 5.38e-06
converged SCF energy = -212.240914281032
**** MO energy ****
                Roothaan           | alpha              | beta
MO #1   energy= -5.27238771501306  | -5.27353729904307  | -5.27123813098306  occ= 2
MO #2   energy= -3.54282232430111  | -3.54464478765868  | -3.54099986094353  occ= 2
MO #3   energy= -3.5392658242438   | -3.54128102550268  | -3.53725062290149  occ= 2
MO #4   energy= -3.53836857272824  | -3.53865001102234  | -3.53808713443414  occ= 2
MO #5   energy= -1.15355938743661  | -1.22848624445354  | -1.0786325304197   occ= 2
MO #6   energy= -0.544440901539755 | -0.547455101739025 | -0.541426701340481 occ= 2
MO #7   energy= -0.534663092677176 | -0.543201085431102 | -0.526125099923254 occ= 2
MO #8   energy= -0.527214872560876 | -0.536945905590741 | -0.517483810425294 occ= 2
MO #9   energy= -0.520326944452676 | -0.520857794071621 | -0.519796094833729 occ= 2
MO #10  energy= -0.520323938683726 | -0.520841274421151 | -0.519806602946298 occ= 2
MO #11  energy= -0.402945142469052 | -0.418031575807732 | -0.38785870913037  occ= 2
MO #12  energy= -0.39358466802647  | -0.403748239001128 | -0.383421097051811 occ= 2
MO #13  energy= -0.142588496317326 | -0.519815324061928 | 0.234638746693066  occ= 1
MO #14  energy= -0.012158309350481 | -0.0127270363131412 | -0.01158958238782  occ= 0
MO #15  energy= 0.0252536220499723 | 0.0248043234597488 | 0.0257029242442476 occ= 0
MO #16  energy= 0.0260875612644111 | 0.0260224357642962 | 0.0261526867645298 occ= 0
MO #17  energy= 0.0343382588562129 | 0.0339218027583149 | 0.0347547149541122 occ= 0
MO #18  energy= 0.0374987353841884 | 0.0374233200037356 | 0.0375741507646522 occ= 0
MO #19  energy= 0.089561011382828  | 0.0878531193143817 | 0.091268899007232  occ= 0
MO #20  energy= 0.0908650483750346 | 0.090627369309967  | 0.0911027274401016 occ= 0
MO #21  energy= 0.120514885718319  | 0.119682646699315  | 0.121347124737339  occ= 0
MO #22  energy= 0.154231764378428  | 0.15405736486445   | 0.154406163892411  occ= 0
MO #23  energy= 0.154280685357287  | 0.154107865386026  | 0.154453505328546  occ= 0
MO #24  energy= 0.165983239693031  | 0.165269609371724  | 0.166696870014346  occ= 0
MO #25  energy= 0.168166863748699  | 0.163655844042317  | 0.172677791185021  occ= 0
MO #26  energy= 0.171294510385157  | 0.170681136032623  | 0.171907884737691  occ= 0
MO #27  energy= 0.175178912962733  | 0.174601056093716  | 0.175756769831755  occ= 0
MO #28  energy= 0.205350137238981  | 0.205217795832201  | 0.205482478342459  occ= 0
MO #29  energy= 0.20713047243771   | 0.207109810577819  | 0.207151134297598  occ= 0
MO #30  energy= 0.21407517098571   | 0.213944979715452  | 0.214205362255989  occ= 0
MO #31  energy= 0.311853094945464  | 0.30863955933394   | 0.315066604754205  occ= 0
MO #32  energy= 0.313628040362908  | 0.313234245771468  | 0.314021834954351  occ= 0
MO #33  energy= 0.364603543707446  | 0.361149277138833  | 0.368057810276073  occ= 0
MO #34  energy= 0.479722846434155  | 0.478899665148981  | 0.480546027719337  occ= 0
MO #35  energy= 0.479763886121345  | 0.478918986414759  | 0.480608785827937  occ= 0
MO #36  energy= 0.509325079528317  | 0.506055758193542  | 0.5125944008631    occ= 0
MO #37  energy= 0.516356120587813  | 0.509166912501194  | 0.523545214431532  occ= 0
MO #38  energy= 0.518164699926089  | 0.517285736042743  | 0.519043663809423  occ= 0
MO #39  energy= 0.554176103613028  | 0.549392738330166  | 0.558959468895888  occ= 0
MO #40  energy= 0.5546021294629    | 0.549797189257044  | 0.559407069668757  occ= 0
MO #41  energy= 0.648421707052234  | 0.639094738246884  | 0.657748649560202  occ= 0
MO #42  energy= 0.653663435437807  | 0.65246585992139   | 0.654861010954222  occ= 0
MO #43  energy= 0.658494001102421  | 0.655921792256352  | 0.661066209948497  occ= 0
MO #44  energy= 0.686480233326289  | 0.685006542651211  | 0.687953924001401  occ= 0
MO #45  energy= 0.778218228284798  | 0.775347550024318  | 0.781088906545299  occ= 0
MO #46  energy= 0.843552657526652  | 0.820345592978376  | 0.866759606160551  occ= 0
MO #47  energy= 0.850038198690918  | 0.847087888103692  | 0.852988509278137  occ= 0
MO #48  energy= 0.969440546032938  | 0.96883826571615   | 0.97004282614179   occ= 0
MO #49  energy= 0.969444983867405  | 0.968841563437643  | 0.970048404297167  occ= 0
MO #50  energy= 1.07479199851502   | 1.07355814707839   | 1.07602584995164   occ= 0
MO #51  energy= 1.07483873868515   | 1.07355220426044   | 1.07612527310985   occ= 0
MO #52  energy= 1.20491359807128   | 1.20355724461667   | 1.2062699515259    occ= 0
MO #53  energy= 1.22253797479088   | 1.22011066043823   | 1.22496528976657   occ= 0
MO #54  energy= 1.22555713272038   | 1.22520835812091   | 1.22590590731984   occ= 0
MO #55  energy= 1.32981994653428   | 1.32239819954761   | 1.33724169352088   occ= 0
MO #56  energy= 1.39151995626195   | 1.38683427605235   | 1.39620563438197   occ= 0
MO #57  energy= 1.39157634438842   | 1.38691820956857   | 1.39623447920826   occ= 0
MO #58  energy= 1.41931413880197   | 1.40886009245289   | 1.42976816532713   occ= 0
MO #59  energy= 1.42645719849653   | 1.42504885868515   | 1.4278655383079    occ= 0
MO #60  energy= 1.45912313883676   | 1.45665211870161   | 1.46159415897192   occ= 0
MO #61  energy= 1.45944445244695   | 1.4574870851797    | 1.46140181971421   occ= 0
MO #62  energy= 1.49862463957829   | 1.49012117117752   | 1.50712810797908   occ= 0
MO #63  energy= 1.62529112079448   | 1.6009424825069    | 1.64963975908205   occ= 0
MO #64  energy= 1.62551978436801   | 1.60396948966217   | 1.64707007907386   occ= 0
MO #65  energy= 1.62663768905667   | 1.6149788511332    | 1.63829652441015   occ= 0
MO #66  energy= 1.63490049678997   | 1.63323989627916   | 1.63656109730077   occ= 0
MO #67  energy= 1.65823475072137   | 1.65230309804182   | 1.66416640340092   occ= 0
MO #68  energy= 1.72251049239175   | 1.71674162096961   | 1.72827936381389   occ= 0
MO #69  energy= 1.72286303742728   | 1.71697221234174   | 1.72875386251284   occ= 0
MO #70  energy= 1.86431937127824   | 1.8603447402844    | 1.86829399871046   occ= 0
MO #71  energy= 1.87082422516251   | 1.87016540596076   | 1.87148304436424   occ= 0
MO #72  energy= 1.99318303189916   | 1.98955357994066   | 1.99681248385764   occ= 0
MO #73  energy= 2.3534791355809    | 2.33915075029952   | 2.36780750489609   occ= 0
MO #74  energy= 2.36423903765558   | 2.36197186274061   | 2.36650621257052   occ= 0
MO #75  energy= 2.56300644766071   | 2.5132794675048    | 2.61273340879441   occ= 0
MO #76  energy= 2.57431425823202   | 2.56752494534988   | 2.58110357111415   occ= 0
MO #77  energy= 2.61075971557399   | 2.60762664639432   | 2.61389278475364   occ= 0
MO #78  energy= 2.99262969856179   | 2.99140555153992   | 2.99385384558366   occ= 0
MO #79  energy= 2.99269496701172   | 2.99149655961456   | 2.99389337440888   occ= 0
MO #80  energy= 3.01389322501756   | 3.01080676161428   | 3.01697968842086   occ= 0
MO #81  energy= 3.02735806850718   | 3.02719670641449   | 3.02751943059699   occ= 0
MO #82  energy= 3.0273585195787    | 3.02719725576207   | 3.02751978339533   occ= 0
MO #83  energy= 3.11920221336324   | 3.11390294813497   | 3.12450147887724   occ= 0
MO #84  energy= 3.12951541131963   | 3.12836672508833   | 3.13066409755092   occ= 0
MO #85  energy= 3.15682966704709   | 3.15393946173802   | 3.15971987235615   occ= 0
MO #86  energy= 3.40053808831936   | 3.39808270491855   | 3.40299347171602   occ= 0
MO #87  energy= 3.4005393792614    | 3.39808499772249   | 3.40299376080029   occ= 0
MO #88  energy= 3.40158606005257   | 3.39469811055916   | 3.40847400954598   occ= 0
MO #89  energy= 3.54544500909093   | 3.54428928183115   | 3.54660073635071   occ= 0
MO #90  energy= 3.54544757703084   | 3.54429473529154   | 3.54660041877015   occ= 0
MO #91  energy= 3.5630459761586    | 3.56048387055728   | 3.56560808175991   occ= 0
MO #92  energy= 3.56335532278266   | 3.5609628710934    | 3.56574777447192   occ= 0
MO #93  energy= 3.71990623458988   | 3.71368044596447   | 3.72613202321529   occ= 0
MO #94  energy= 3.71990636795229   | 3.71368076074859   | 3.72613197515599   occ= 0
MO #95  energy= 3.76992321005062   | 3.76355410272095   | 3.77629231658164   occ= 0
MO #96  energy= 3.77223622486006   | 3.76676515072306   | 3.77770729899705   occ= 0
MO #97  energy= 3.78137099514584   | 3.77992657127303   | 3.78281541901864   occ= 0
MO #98  energy= 3.98904182712886   | 3.98336192119431   | 3.99472173265497   occ= 0
MO #99  energy= 3.98906167824121   | 3.98337699798724   | 3.99474635849519   occ= 0
MO #100 energy= 4.08832597411683   | 4.07321884449083   | 4.10343310143196   occ= 0
MO #101 energy= 4.08840306395118   | 4.07325422108187   | 4.10355190682049   occ= 0
MO #102 energy= 4.20154640476456   | 4.18633957758679   | 4.21675323147981   occ= 0
MO #103 energy= 4.21601477280531   | 4.20445932783051   | 4.22757021778008   occ= 0
MO #104 energy= 4.21620922982242   | 4.20500990112122   | 4.2274085585236    occ= 0
MO #105 energy= 4.22367682751081   | 4.22118923303487   | 4.22616442198674   occ= 0
MO #106 energy= 4.33923116447456   | 4.3141485911426    | 4.36431373780651   occ= 0
MO #107 energy= 4.34376855418039   | 4.31375409931896   | 4.37378300904184   occ= 0
MO #108 energy= 4.35717268269657   | 4.34789940930808   | 4.36644595608507   occ= 0
MO #109 energy= 4.56576964024074   | 4.55711485502008   | 4.57442442546142   occ= 0
MO #110 energy= 4.66722286114859   | 4.64452627279357   | 4.68991945029328   occ= 0
MO #111 energy= 4.67479080998862   | 4.66360359597301   | 4.68597802400422   occ= 0
MO #112 energy= 4.67516898567506   | 4.66493618520723   | 4.68540178614289   occ= 0
MO #113 energy= 4.68784687887413   | 4.68377659504546   | 4.69191716270279   occ= 0
MO #114 energy= 4.74097172491151   | 4.73074460380753   | 4.75119884601551   occ= 0
MO #115 energy= 5.14022215361528   | 5.12888697181075   | 5.1515573339127    occ= 0
MO #116 energy= 5.15750120241339   | 5.1552216987615    | 5.15978070606525   occ= 0
MO #117 energy= 5.2231699798041    | 5.22261658696237   | 5.22372337264584   occ= 0
MO #118 energy= 5.22318829815482   | 5.22263818260921   | 5.22373841370045   occ= 0
MO #119 energy= 5.61416771133632   | 5.60028127998382   | 5.62805414268879   occ= 0
MO #120 energy= 5.65221040285046   | 5.65026773198806   | 5.65415307376435   occ= 0
MO #121 energy= 5.65595316017119   | 5.65562904155733   | 5.65627727878491   occ= 0
MO #122 energy= 6.78012352304939   | 6.77714066283063   | 6.78310638326812   occ= 0
MO #123 energy= 7.28961798340526   | 7.28664293968678   | 7.2925930268663    occ= 0
MO #124 energy= 7.29463449496944   | 7.29410865435985   | 7.295160335579     occ= 0
MO #125 energy= 8.0104496556152    | 8.00916846863562   | 8.01173084259476   occ= 0
MO #126 energy= 8.03132474589107   | 8.03109442139371   | 8.03155507038908   occ= 0
MO #127 energy= 8.03132475846456   | 8.03109442723176   | 8.03155508969736   occ= 0
MO #128 energy= 8.10411530755132   | 8.10306812965209   | 8.10516248545058   occ= 0
MO #129 energy= 8.10413518173988   | 8.10309757970047   | 8.1051727837793    occ= 0
MO #130 energy= 8.47064864498634   | 8.4645956785128    | 8.47670161126477   occ= 0
MO #131 energy= 8.47595520508125   | 8.4750293969284    | 8.47688101323406   occ= 0
MO #132 energy= 9.02056263484409   | 9.01723921243129   | 9.0238860572569    occ= 0
MO #133 energy= 9.36199473373707   | 9.32204677068148   | 9.40194269608829   occ= 0
MO #134 energy= 9.39014072840545   | 9.38336491805752   | 9.39691653875336   occ= 0
MO #135 energy= 10.0905340407941   | 10.089830491599    | 10.0912375899889   occ= 0
MO #136 energy= 10.0905344411111   | 10.0898313136116   | 10.0912375686105   occ= 0
MO #137 energy= 10.0941516535481   | 10.0939764475969   | 10.0943268594993   occ= 0
MO #138 energy= 10.0941516560759   | 10.0939764545004   | 10.0943268576514   occ= 0
MO #139 energy= 10.0981037461484   | 10.0980563591277   | 10.0981511331691   occ= 0
MO #140 energy= 10.098103746342    | 10.098056359455    | 10.098151133229    occ= 0
MO #141 energy= 10.1563084776696   | 10.15315694877     | 10.1594600065692   occ= 0
MO #142 energy= 10.1625097451732   | 10.1614807896277   | 10.1635387007187   occ= 0
MO #143 energy= 10.1625347575493   | 10.1615601878848   | 10.1635093272137   occ= 0
MO #144 energy= 10.2146959764917   | 10.2094598937637   | 10.2199320592198   occ= 0
MO #145 energy= 10.2889683622687   | 10.2853968158131   | 10.2925399087088   occ= 0
MO #146 energy= 10.296748214327    | 10.2959256072559   | 10.2975708213981   occ= 0
MO #147 energy= 10.6349611039709   | 10.6197515177618   | 10.6501706901801   occ= 0
MO #148 energy= 10.6349626824128   | 10.6197549061409   | 10.6501704586846   occ= 0
MO #149 energy= 10.6377960567371   | 10.6291602790253   | 10.6464318344493   occ= 0
MO #150 energy= 10.6378671263177   | 10.6292928920973   | 10.646441360538    occ= 0
MO #151 energy= 10.7744719816358   | 10.7738401387378   | 10.7751038245337   occ= 0
MO #152 energy= 10.774474791015    | 10.7738469933433   | 10.7751025886867   occ= 0
MO #153 energy= 10.7982928067269   | 10.7917436043503   | 10.8048420091035   occ= 0
MO #154 energy= 10.7992392866682   | 10.7932460588752   | 10.8052325144612   occ= 0
MO #155 energy= 10.8441625600343   | 10.8344121668092   | 10.853912953258    occ= 0
MO #156 energy= 10.8676382307553   | 10.8635024590267   | 10.8717740024838   occ= 0
MO #157 energy= 10.8766667724168   | 10.8733662400625   | 10.8799673047668   occ= 0
MO #158 energy= 10.8815107195506   | 10.8798653601788   | 10.8831560789224   occ= 0
MO #159 energy= 11.0234098747386   | 11.0192330875997   | 11.0275866618776   occ= 0
MO #160 energy= 11.0892792090878   | 11.0857465204751   | 11.0928118977005   occ= 0
MO #161 energy= 11.0897697629923   | 11.0863298048252   | 11.0932097211595   occ= 0
MO #162 energy= 11.2373278965087   | 11.2322737957785   | 11.2423819972389   occ= 0
MO #163 energy= 11.2663801233394   | 11.2597991042296   | 11.2729611424322   occ= 0
MO #164 energy= 11.2836459515007   | 11.2820170056065   | 11.2852748973948   occ= 0
MO #165 energy= 11.5964970678453   | 11.5719373720217   | 11.62105676322     occ= 0
MO #166 energy= 11.5965240529206   | 11.5719328529975   | 11.6211152528438   occ= 0
MO #167 energy= 11.7118311154981   | 11.6939508705113   | 11.7297113604849   occ= 0
MO #168 energy= 11.7129432463997   | 11.6962231352609   | 11.7296633575386   occ= 0
MO #169 energy= 11.9536506365429   | 11.9470146074783   | 11.9602866656073   occ= 0
MO #170 energy= 12.1875308607505   | 12.171386822413    | 12.203674898919    occ= 0
MO #171 energy= 12.2183489034231   | 12.2147794001585   | 12.2219184066876   occ= 0
MO #172 energy= 12.5809234792179   | 12.5512859474356   | 12.6105610110002   occ= 0
MO #173 energy= 12.5810437659576   | 12.5518597329668   | 12.6102277989485   occ= 0
MO #174 energy= 12.8514493098845   | 12.8237451767282   | 12.8791534430337   occ= 0
MO #175 energy= 12.8839787338673   | 12.8788956751952   | 12.8890617925393   occ= 0
MO #176 energy= 13.0207111574269   | 13.0170120656663   | 13.0244102491873   occ= 0
MO #177 energy= 13.4907491706099   | 13.4838458132499   | 13.49765252797     occ= 0
MO #178 energy= 15.0641279249177   | 15.0638864738475   | 15.0643693759878   occ= 0
MO #179 energy= 15.0641300136702   | 15.0638887947296   | 15.0643712326107   occ= 0
MO #180 energy= 15.6778857471359   | 15.6765005764266   | 15.6792709178529   occ= 0
MO #181 energy= 15.6802456064318   | 15.6800085807887   | 15.6804826320748   occ= 0
MO #182 energy= 17.1225699514178   | 17.1219148851728   | 17.1232250176628   occ= 0
MO #183 energy= 19.8361906959523   | 19.8271776878286   | 19.8452037040756   occ= 0
MO #184 energy= 20.6548298073746   | 20.649212461025    | 20.6604471537232   occ= 0
MO #185 energy= 21.1695228129973   | 21.1686026788357   | 21.1704429471621   occ= 0
MO #186 energy= 21.1722072211334   | 21.1720386991662   | 21.1723757431005   occ= 0
MO #187 energy= 22.0144686132145   | 22.0142207491125   | 22.0147164773165   occ= 0
MO #188 energy= 22.014468616307    | 22.0142207527973   | 22.0147164798168   occ= 0
MO #189 energy= 22.0648270053781   | 22.0639048687124   | 22.0657491420438   occ= 0
MO #190 energy= 22.0648396513415   | 22.0639277672855   | 22.0657515353975   occ= 0
MO #191 energy= 22.1455466245151   | 22.1448957989219   | 22.1461974501082   occ= 0
MO #192 energy= 22.4095070545799   | 22.4084490580354   | 22.410565051134    occ= 0
MO #193 energy= 22.4118567068693   | 22.4116865609584   | 22.4120268527802   occ= 0
MO #194 energy= 25.5904739279978   | 25.5898335055788   | 25.5911143504162   occ= 0
MO #195 energy= 29.6267595870909   | 29.6265846136982   | 29.6269345604836   occ= 0
MO #196 energy= 29.626759587204    | 29.6265846138348   | 29.6269345605731   occ= 0
MO #197 energy= 29.6482309343615   | 29.6476512812053   | 29.6488105875175   occ= 0
MO #198 energy= 29.6482309776826   | 29.6476513489252   | 29.64881060644     occ= 0
MO #199 energy= 29.7326139988472   | 29.7320132915203   | 29.7332147061739   occ= 0
MO #200 energy= 29.7326342571882   | 29.7320440801885   | 29.7332244341878   occ= 0
MO #201 energy= 29.808380503301    | 29.8075828240067   | 29.8091781825954   occ= 0
MO #202 energy= 29.8106637993882   | 29.8105037158184   | 29.8108238829579   occ= 0
MO #203 energy= 29.8275992319177   | 29.827186008483    | 29.8280124553524   occ= 0
MO #204 energy= 30.2863106658659   | 30.2862021984814   | 30.2864191332506   occ= 0
MO #205 energy= 30.2863106659127   | 30.2862021985319   | 30.2864191332936   occ= 0
MO #206 energy= 30.2891072117131   | 30.2887618085997   | 30.2894526148266   occ= 0
MO #207 energy= 30.2891072134374   | 30.2887618109967   | 30.2894526158781   occ= 0
MO #208 energy= 30.295642280468    | 30.2952500024375   | 30.2960345584986   occ= 0
MO #209 energy= 30.2956423670529   | 30.2952501241187   | 30.296034609987    occ= 0
MO #210 energy= 30.3366544646007   | 30.3363032158362   | 30.3370057133652   occ= 0
MO #211 energy= 30.3366722869653   | 30.3363266864103   | 30.3370178875203   occ= 0
MO #212 energy= 30.4290890779696   | 30.4286010049361   | 30.4295771510032   occ= 0
MO #213 energy= 30.4313720197019   | 30.4312565158095   | 30.4314875235944   occ= 0
MO #214 energy= 30.4561178373115   | 30.4558311331968   | 30.4564045414263   occ= 0
 ** Mulliken pop on meta-lowdin orthogonal AOs  **
 ** Mulliken pop  **
pop of  0Cu 3s        1.99998
pop of  0Cu 4s        0.33454
pop of  0Cu 5s        0.00400
pop of  0Cu 6s        0.00048
pop of  0Cu 7s        0.00003
pop of  0Cu 8s        0.00099
pop of  0Cu 9s        0.00066
pop of  0Cu 3px       1.99994
pop of  0Cu 3py       1.99995
pop of  0Cu 3pz       1.99988
pop of  0Cu 4px       0.00289
pop of  0Cu 4py       0.01298
pop of  0Cu 4pz       0.00786
pop of  0Cu 5px       0.00029
pop of  0Cu 5py       0.00163
pop of  0Cu 5pz       0.00036
pop of  0Cu 6px       0.00002
pop of  0Cu 6py       0.00017
pop of  0Cu 6pz       0.00025
pop of  0Cu 7px       0.00000
pop of  0Cu 7py       0.00004
pop of  0Cu 7pz       0.00011
pop of  0Cu 8px       0.00020
pop of  0Cu 8py       0.00168
pop of  0Cu 8pz       0.00024
pop of  0Cu 9px       0.00002
pop of  0Cu 9py       0.00019
pop of  0Cu 9pz       0.00005
pop of  0Cu 3dxy      1.99854
pop of  0Cu 3dyz      1.99188
pop of  0Cu 3dz^2     1.89099
pop of  0Cu 3dxz      1.98546
pop of  0Cu 3dx2-y2    1.99854
pop of  0Cu 4dxy      0.00080
pop of  0Cu 4dyz      0.00097
pop of  0Cu 4dz^2     0.00250
pop of  0Cu 4dxz      0.00104
pop of  0Cu 4dx2-y2    0.00080
pop of  0Cu 5dxy      0.00011
pop of  0Cu 5dyz      0.00015
pop of  0Cu 5dz^2     0.00086
pop of  0Cu 5dxz      0.00011
pop of  0Cu 5dx2-y2    0.00011
pop of  0Cu 6dxy      0.00000
pop of  0Cu 6dyz      0.00002
pop of  0Cu 6dz^2     0.00017
pop of  0Cu 6dxz      0.00000
pop of  0Cu 6dx2-y2    0.00000
pop of  0Cu 7dxy      0.00025
pop of  0Cu 7dyz      0.00040
pop of  0Cu 7dz^2     0.00137
pop of  0Cu 7dxz      0.00021
pop of  0Cu 7dx2-y2    0.00025
pop of  0Cu 8dxy      0.00006
pop of  0Cu 8dyz      0.00034
pop of  0Cu 8dz^2     0.00083
pop of  0Cu 8dxz      0.00003
pop of  0Cu 8dx2-y2    0.00006
pop of  0Cu 4fy^3     0.00000
pop of  0Cu 4fxyz     0.00000
pop of  0Cu 4fyz^2    0.00000
pop of  0Cu 4fz^3     0.00001
pop of  0Cu 4fxz^2    0.00000
pop of  0Cu 4fzx^2    0.00000
pop of  0Cu 4fx^3     0.00000
pop of  0Cu 5fy^3     0.00000
pop of  0Cu 5fxyz     0.00001
pop of  0Cu 5fyz^2    0.00004
pop of  0Cu 5fz^3     0.00006
pop of  0Cu 5fxz^2    0.00003
pop of  0Cu 5fzx^2    0.00001
pop of  0Cu 5fx^3     0.00000
pop of  0Cu 6fy^3     0.00000
pop of  0Cu 6fxyz     0.00007
pop of  0Cu 6fyz^2    0.00016
pop of  0Cu 6fz^3     0.00008
pop of  0Cu 6fxz^2    0.00010
pop of  0Cu 6fzx^2    0.00007
pop of  0Cu 6fx^3     0.00000
pop of  0Cu 7fy^3     0.00000
pop of  0Cu 7fxyz     0.00010
pop of  0Cu 7fyz^2    0.00032
pop of  0Cu 7fz^3     0.00012
pop of  0Cu 7fxz^2    0.00015
pop of  0Cu 7fzx^2    0.00010
pop of  0Cu 7fx^3     0.00000
pop of  0Cu 5g-4      0.00000
pop of  0Cu 5g-3      0.00000
pop of  0Cu 5g-2      0.00000
pop of  0Cu 5g-1      0.00000
pop of  0Cu 5g 0      0.00000
pop of  0Cu 5g 1      0.00000
pop of  0Cu 5g 2      0.00000
pop of  0Cu 5g 3      0.00000
pop of  0Cu 5g 4      0.00000
pop of  0Cu 6g-4      0.00000
pop of  0Cu 6g-3      0.00000
pop of  0Cu 6g-2      0.00000
pop of  0Cu 6g-1      0.00000
pop of  0Cu 6g 0      0.00000
pop of  0Cu 6g 1      0.00000
pop of  0Cu 6g 2      0.00000
pop of  0Cu 6g 3      0.00000
pop of  0Cu 6g 4      0.00000
pop of  0Cu 7g-4      0.00000
pop of  0Cu 7g-3      0.00000
pop of  0Cu 7g-2      0.00000
pop of  0Cu 7g-1      0.00003
pop of  0Cu 7g 0      0.00009
pop of  0Cu 7g 1      0.00002
pop of  0Cu 7g 2      0.00000
pop of  0Cu 7g 3      0.00000
pop of  0Cu 7g 4      0.00000
pop of  0Cu 6h-5      0.00000
pop of  0Cu 6h-4      0.00000
pop of  0Cu 6h-3      0.00000
pop of  0Cu 6h-2      0.00000
pop of  0Cu 6h-1      0.00000
pop of  0Cu 6h 0      0.00000
pop of  0Cu 6h 1      0.00000
pop of  0Cu 6h 2      0.00000
pop of  0Cu 6h 3      0.00000
pop of  0Cu 6h 4      0.00000
pop of  0Cu 6h 5      0.00000
pop of  0Cu 7h-5      0.00000
pop of  0Cu 7h-4      0.00000
pop of  0Cu 7h-3      0.00000
pop of  0Cu 7h-2      0.00000
pop of  0Cu 7h-1      0.00000
pop of  0Cu 7h 0      0.00000
pop of  0Cu 7h 1      0.00000
pop of  0Cu 7h 2      0.00000
pop of  0Cu 7h 3      0.00000
pop of  0Cu 7h 4      0.00000
pop of  0Cu 7h 5      0.00000
pop of  1O 2s        1.92279
pop of  1O 3s        0.00034
pop of  1O 4s        0.00006
pop of  1O 5s        0.00072
pop of  1O 6s        0.00053
pop of  1O 2px       1.04299
pop of  1O 2py       1.93657
pop of  1O 2pz       1.81632
pop of  1O 3px       0.00011
pop of  1O 3py       0.00108
pop of  1O 3pz       0.00139
pop of  1O 4px       0.00003
pop of  1O 4py       0.00017
pop of  1O 4pz       0.00087
pop of  1O 5px       0.00075
pop of  1O 5py       0.00642
pop of  1O 5pz       0.00554
pop of  1O 6px       0.00034
pop of  1O 6py       0.00351
pop of  1O 6pz       0.00063
pop of  1O 3dxy      0.00000
pop of  1O 3dyz      0.00003
pop of  1O 3dz^2     0.00007
pop of  1O 3dxz      0.00002
pop of  1O 3dx2-y2    0.00000
pop of  1O 4dxy      0.00000
pop of  1O 4dyz      0.00032
pop of  1O 4dz^2     0.00077
pop of  1O 4dxz      0.00022
pop of  1O 4dx2-y2    0.00001
pop of  1O 5dxy      0.00001
pop of  1O 5dyz      0.00141
pop of  1O 5dz^2     0.00266
pop of  1O 5dxz      0.00077
pop of  1O 5dx2-y2    0.00002
pop of  1O 6dxy      0.00001
pop of  1O 6dyz      0.00217
pop of  1O 6dz^2     0.00060
pop of  1O 6dxz      0.00083
pop of  1O 6dx2-y2    0.00003
pop of  1O 4fy^3     0.00001
pop of  1O 4fxyz     0.00000
pop of  1O 4fyz^2    0.00000
pop of  1O 4fz^3     0.00000
pop of  1O 4fxz^2    0.00000
pop of  1O 4fzx^2    0.00000
pop of  1O 4fx^3     0.00001
pop of  1O 5fy^3     0.00003
pop of  1O 5fxyz     0.00000
pop of  1O 5fyz^2    0.00005
pop of  1O 5fz^3     0.00010
pop of  1O 5fxz^2    0.00001
pop of  1O 5fzx^2    0.00001
pop of  1O 5fx^3     0.00004
pop of  1O 6fy^3     0.00002
pop of  1O 6fxyz     0.00002
pop of  1O 6fyz^2    0.00044
pop of  1O 6fz^3     0.00001
pop of  1O 6fxz^2    0.00009
pop of  1O 6fzx^2    0.00003
pop of  1O 6fx^3     0.00002
pop of  1O 5g-4      0.00000
pop of  1O 5g-3      0.00000
pop of  1O 5g-2      0.00000
pop of  1O 5g-1      0.00000
pop of  1O 5g 0      0.00000
pop of  1O 5g 1      0.00000
pop of  1O 5g 2      0.00000
pop of  1O 5g 3      0.00000
pop of  1O 5g 4      0.00000
pop of  1O 6g-4      0.00000
pop of  1O 6g-3      0.00000
pop of  1O 6g-2      0.00000
pop of  1O 6g-1      0.00004
pop of  1O 6g 0      0.00000
pop of  1O 6g 1      0.00001
pop of  1O 6g 2      0.00000
pop of  1O 6g 3      0.00000
pop of  1O 6g 4      0.00000
 ** Mulliken atomic charges  **
charge of  0Cu =      0.75210
charge of  1O =     -0.75210

******** <class 'pyscf.mcscf.mc1step.CASSCF'> flags ********
CAS (8e+7e, 9o), ncore = 5, nvir = 200
max_cycle_macro = 50
max_cycle_micro = 4
conv_tol = 1e-07
conv_tol_grad = None
orbital rotation max_stepsize = 0.02
augmented hessian ah_max_cycle = 30
augmented hessian ah_conv_tol = 1e-12
augmented hessian ah_linear dependence = 1e-14
augmented hessian ah_level shift = 0
augmented hessian ah_start_tol = 2.5
augmented hessian ah_start_cycle = 3
augmented hessian ah_grad_trust_region = 3
kf_trust_region = 3
kf_interval = 4
ci_response_space = 4
ci_grad_trust_region = 3
with_dep4 0
natorb = False
canonicalization = True
chkfile = ./scratch/13065/tmp7J4HEG
max_memory 4000 MB (current use 2630 MB)
internal_rotation = False

******** SHCI flags ********
executable             = /home/bamu3429/softwares/dice/Dice
mpiprefix              = mpirun -np 28
scratchDirectory       = ./scratch/13065
integralFile           = ./FCIDUMP
configFile             = ./input.dat
outputFile             = ./output.dat
maxIter                = 6
sweep_iter             = []
sweep_epsilon          = []
nPTiter                = 0
Stochastic             = True
fullrestart            = False
restart                = False
num_thrds              = 12
memory                 = None

CASCI E = -212.241551058694  S^2 = 0.7500000
Set conv_tol_grad to 0.000316228
macro iter 1 (21 JK  4 micro), CASSCF E = -212.255007621558  dE = -0.013456563  S^2 = 0.7500000
               |grad[o]|=0.00743  |grad[c]|= None  |ddm|=0.0971
macro iter 2 (21 JK  4 micro), CASSCF E = -212.262274633649  dE = -0.0072670121  S^2 = 0.7500000
               |grad[o]|=0.0828  |grad[c]|= None  |ddm|=0.0499
macro iter 3 (19 JK  4 micro), CASSCF E = -212.263813446395  dE = -0.0015388127  S^2 = 0.7500000
               |grad[o]|=0.0655  |grad[c]|= None  |ddm|=0.0581
macro iter 4 (21 JK  4 micro), CASSCF E = -212.264863916063  dE = -0.0010504697  S^2 = 0.7500000
               |grad[o]|=0.0558  |grad[c]|= None  |ddm|=0.0444
macro iter 5 (21 JK  4 micro), CASSCF E = -212.265853554016  dE = -0.00098963795  S^2 = 0.7500000
               |grad[o]|=0.0545  |grad[c]|= None  |ddm|=0.0435
macro iter 6 (21 JK  4 micro), CASSCF E = -212.26668530125  dE = -0.00083174723  S^2 = 0.7500000
               |grad[o]|=0.0506  |grad[c]|= None  |ddm|=0.0504
macro iter 7 (19 JK  4 micro), CASSCF E = -212.267347477715  dE = -0.00066217647  S^2 = 0.7500000
               |grad[o]|=0.0458  |grad[c]|= None  |ddm|=0.0384
macro iter 8 (21 JK  4 micro), CASSCF E = -212.267779532203  dE = -0.00043205449  S^2 = 0.7500000
               |grad[o]|=0.0409  |grad[c]|= None  |ddm|=0.0265
macro iter 9 (21 JK  4 micro), CASSCF E = -212.268128487027  dE = -0.00034895482  S^2 = 0.7500000
               |grad[o]|=0.0377  |grad[c]|= None  |ddm|=0.0236
macro iter 10 (21 JK  4 micro), CASSCF E = -212.268480717703  dE = -0.00035223068  S^2 = 0.7500000
               |grad[o]|=0.0348  |grad[c]|= None  |ddm|=0.0233
macro iter 11 (21 JK  4 micro), CASSCF E = -212.268718353171  dE = -0.00023763547  S^2 = 0.7500000
               |grad[o]|=0.0324  |grad[c]|= None  |ddm|=0.019
macro iter 12 (21 JK  4 micro), CASSCF E = -212.268917058858  dE = -0.00019870569  S^2 = 0.7500000
               |grad[o]|=0.0309  |grad[c]|= None  |ddm|=0.0117
macro iter 13 (21 JK  4 micro), CASSCF E = -212.269103426362  dE = -0.0001863675  S^2 = 0.7500000
               |grad[o]|=0.0302  |grad[c]|= None  |ddm|=0.0109
macro iter 14 (21 JK  4 micro), CASSCF E = -212.269280210052  dE = -0.00017678369  S^2 = 0.7500000
               |grad[o]|=0.0309  |grad[c]|= None  |ddm|=0.0106
macro iter 15 (21 JK  4 micro), CASSCF E = -212.269402250414  dE = -0.00012204036  S^2 = 0.7500000
               |grad[o]|=0.0297  |grad[c]|= None  |ddm|=0.0121
macro iter 16 (21 JK  4 micro), CASSCF E = -212.269626635015  dE = -0.0002243846  S^2 = 0.7500000
               |grad[o]|=0.0271  |grad[c]|= None  |ddm|=0.0108
macro iter 17 (21 JK  4 micro), CASSCF E = -212.269746567555  dE = -0.00011993254  S^2 = 0.7500000
               |grad[o]|=0.0254  |grad[c]|= None  |ddm|=0.0104
macro iter 18 (21 JK  4 micro), CASSCF E = -212.269889299755  dE = -0.0001427322  S^2 = 0.7500000
               |grad[o]|=0.0243  |grad[c]|= None  |ddm|=0.00829
macro iter 19 (21 JK  4 micro), CASSCF E = -212.269991001633  dE = -0.00010170188  S^2 = 0.7500000
               |grad[o]|=0.0225  |grad[c]|= None  |ddm|=0.00977
macro iter 20 (21 JK  4 micro), CASSCF E = -212.270106379032  dE = -0.0001153774  S^2 = 0.7500000
               |grad[o]|=0.0215  |grad[c]|= None  |ddm|=0.00876
macro iter 21 (21 JK  4 micro), CASSCF E = -212.27018552723  dE = -7.9148198e-05  S^2 = 0.7500000
               |grad[o]|=0.0199  |grad[c]|= None  |ddm|=0.00777
macro iter 22 (21 JK  4 micro), CASSCF E = -212.270274578177  dE = -8.9050947e-05  S^2 = 0.7500000
               |grad[o]|=0.0186  |grad[c]|= None  |ddm|=0.00741
macro iter 23 (21 JK  4 micro), CASSCF E = -212.270325688676  dE = -5.1110499e-05  S^2 = 0.7500000
               |grad[o]|=0.0172  |grad[c]|= None  |ddm|=0.00831
macro iter 24 (21 JK  4 micro), CASSCF E = -212.270380539454  dE = -5.4850778e-05  S^2 = 0.7500000
               |grad[o]|=0.0174  |grad[c]|= None  |ddm|=0.00685
macro iter 25 (21 JK  4 micro), CASSCF E = -212.270432857241  dE = -5.2317787e-05  S^2 = 0.7500000
               |grad[o]|=0.0163  |grad[c]|= None  |ddm|=0.00671
macro iter 26 (21 JK  4 micro), CASSCF E = -212.270480344273  dE = -4.7487032e-05  S^2 = 0.7500000
               |grad[o]|=0.0153  |grad[c]|= None  |ddm|=0.00653
macro iter 27 (21 JK  4 micro), CASSCF E = -212.270526240985  dE = -4.5896713e-05  S^2 = 0.7500000
               |grad[o]|=0.0144  |grad[c]|= None  |ddm|=0.00654
macro iter 28 (21 JK  4 micro), CASSCF E = -212.270571334391  dE = -4.5093406e-05  S^2 = 0.7500000
               |grad[o]|=0.0135  |grad[c]|= None  |ddm|=0.00639
macro iter 29 (21 JK  4 micro), CASSCF E = -212.270612265436  dE = -4.0931044e-05  S^2 = 0.7500000
               |grad[o]|=0.0126  |grad[c]|= None  |ddm|=0.00614
macro iter 30 (7 JK  2 micro), CASSCF E = -212.270664790708  dE = -5.2525272e-05  S^2 = 0.7500000
               |grad[o]|=0.0118  |grad[c]|= None  |ddm|=0.00255
macro iter 31 (21 JK  4 micro), CASSCF E = -212.270687977376  dE = -2.3186668e-05  S^2 = 0.7500000
               |grad[o]|=0.0117  |grad[c]|= None  |ddm|=0.00537
macro iter 32 (21 JK  4 micro), CASSCF E = -212.270704887757  dE = -1.691038e-05  S^2 = 0.7500000
               |grad[o]|=0.0117  |grad[c]|= None  |ddm|=0.00446
macro iter 33 (7 JK  2 micro), CASSCF E = -212.270753214127  dE = -4.8326371e-05  S^2 = 0.7500000
               |grad[o]|=0.0102  |grad[c]|= None  |ddm|=0.00229
macro iter 34 (21 JK  4 micro), CASSCF E = -212.270757627618  dE = -4.4134909e-06  S^2 = 0.7500000
               |grad[o]|=0.0101  |grad[c]|= None  |ddm|=0.00415
macro iter 35 (21 JK  4 micro), CASSCF E = -212.270767844186  dE = -1.0216567e-05  S^2 = 0.7500000
               |grad[o]|=0.00968  |grad[c]|= None  |ddm|=0.00381
macro iter 36 (7 JK  2 micro), CASSCF E = -212.270814334329  dE = -4.6490143e-05  S^2 = 0.7500000
               |grad[o]|=0.00861  |grad[c]|= None  |ddm|=0.00213
macro iter 37 (7 JK  2 micro), CASSCF E = -212.270857038436  dE = -4.2704107e-05  S^2 = 0.7500000
               |grad[o]|=0.00853  |grad[c]|= None  |ddm|=0.00205
macro iter 38 (7 JK  2 micro), CASSCF E = -212.270898077527  dE = -4.1039092e-05  S^2 = 0.7500000
               |grad[o]|=0.00868  |grad[c]|= None  |ddm|=0.00208
macro iter 39 (7 JK  2 micro), CASSCF E = -212.270938416469  dE = -4.0338942e-05  S^2 = 0.7500000
               |grad[o]|=0.00879  |grad[c]|= None  |ddm|=0.0022
macro iter 40 (7 JK  2 micro), CASSCF E = -212.270978286908  dE = -3.9870439e-05  S^2 = 0.7500000
               |grad[o]|=0.00891  |grad[c]|= None  |ddm|=0.00236
macro iter 41 (7 JK  2 micro), CASSCF E = -212.271017717271  dE = -3.9430362e-05  S^2 = 0.7500000
               |grad[o]|=0.009  |grad[c]|= None  |ddm|=0.00256
macro iter 42 (7 JK  2 micro), CASSCF E = -212.271056737949  dE = -3.9020678e-05  S^2 = 0.7500000
               |grad[o]|=0.00907  |grad[c]|= None  |ddm|=0.00274
macro iter 43 (7 JK  2 micro), CASSCF E = -212.271073562634  dE = -1.6824685e-05  S^2 = 0.7500000
               |grad[o]|=0.00911  |grad[c]|= None  |ddm|=0.00133
macro iter 44 (7 JK  2 micro), CASSCF E = -212.271089066876  dE = -1.5504242e-05  S^2 = 0.7500000
               |grad[o]|=0.00908  |grad[c]|= None  |ddm|=0.00119
macro iter 45 (7 JK  2 micro), CASSCF E = -212.271102873108  dE = -1.3806232e-05  S^2 = 0.7500000
               |grad[o]|=0.00905  |grad[c]|= None  |ddm|=0.00103
macro iter 46 (7 JK  2 micro), CASSCF E = -212.271114827393  dE = -1.1954285e-05  S^2 = 0.7500000
               |grad[o]|=0.009  |grad[c]|= None  |ddm|=0.00101
macro iter 47 (7 JK  2 micro), CASSCF E = -212.271129362264  dE = -1.4534871e-05  S^2 = 0.7500000
               |grad[o]|=0.00896  |grad[c]|= None  |ddm|=0.00102
macro iter 48 (7 JK  2 micro), CASSCF E = -212.271144323269  dE = -1.4961005e-05  S^2 = 0.7500000
               |grad[o]|=0.00892  |grad[c]|= None  |ddm|=0.00106
macro iter 49 (7 JK  2 micro), CASSCF E = -212.27115968647  dE = -1.5363201e-05  S^2 = 0.7500000
               |grad[o]|=0.00883  |grad[c]|= None  |ddm|=0.00114
macro iter 50 (7 JK  2 micro), CASSCF E = -212.271175482519  dE = -1.5796049e-05  S^2 = 0.7500000
               |grad[o]|=0.0088  |grad[c]|= None  |ddm|=0.00268
1-step CASSCF not converged, 50 macro (808 JK 166 micro) steps
CASSCF canonicalization
CASSCF energy = -212.271175482519


--------------------------------------------------
                 ICMPSPT CALCULATION              
--------------------------------------------------

Perturbation type: MRLCC
With fully internally contracted scheme
With third order correction

Preparing necessary RDMs
......production of RDMs took      38.12 sec
Reading binary 4RDM from DICE
......reading the RDM took         27.12 sec

(GOOD) Trace 4RDM:  32760.0 =   15*   14*   13*   12
(GOOD) Trace 3RDM:   2730.0 =   15*   14*   13
(GOOD) Trace 2RDM:    210.0 =   15*   14
(GOOD) Trace 1RDM:     15.0 =   15

Producing the integrals
......production of INT took     588.55 sec

Energy_core =  -166.832490615
Energy      =  -212.271175483

WARNING: Have to use natural orbitals from CAASCF
         offdiagonal elements: 1.99146076671

Basic ingredients written to int/
......savings of INGREDIENTS took     256.90 sec

Second-order:
perturber CCVV --        -0.157475738
perturber CCAV --        -0.011678360
perturber ACVV --        -0.486150515
perturber CCAA --        -0.000274734
perturber AAVV --        -0.435650411
perturber CAAV --        -0.070702571
perturber AAAV --        -0.099782262
perturber AAAC --        -0.000188108
Total:                   -1.261902698

Third-order:             -0.000263906

Total PT       --        -1.262166605

