 &FCI NORB=6 ,NELEC=4 ,MS2=2,
  ORBSYM=1,1,1,1,1,1,
  ISYM=1,
 &END
  2.448493610610e-01    1  1  1  1
 -2.023658677777e-08    2  1  1  1
  8.799870392800e-03    2  1  2  1
  3.065888532827e-01    2  2  1  1
 -3.636453405267e-03    2  2  2  1
  6.571939338896e-01    2  2  2  2
 -1.387599361565e-08    3  1  1  1
 -1.368809699404e-08    3  1  2  1
  5.934291545150e-04    3  1  2  2
  8.799924325382e-03    3  1  3  1
  1.598033089405e-08    3  2  1  1
  5.934198354026e-04    3  2  2  1
  1.759201125281e-07    3  2  2  2
  3.636080630495e-03    3  2  3  1
  2.910953635589e-02    3  2  3  2
  3.065888758112e-01    3  3  1  1
  3.635771916294e-03    3  3  2  1
  5.989744834598e-01    3  3  2  2
 -5.934373725241e-04    3  3  3  1
  1.840816456895e-07    3  3  3  2
  6.571931537837e-01    3  3  3  3
  5.605657356835e-02    4  1  4  1
 -1.426636818826e-02    4  2  4  1
  1.286362561934e-02    4  2  4  2
 -1.347867933307e-03    4  3  4  1
 -1.135970633928e-03    4  3  4  2
  4.186231687090e-03    4  3  4  3
  2.419018209789e-01    4  4  1  1
 -7.481376160420e-03    4  4  2  1
  3.046002349166e-01    4  4  2  2
 -7.067564788834e-04    4  4  3  1
 -1.570757148769e-03    4  4  3  2
  2.926006214483e-01    4  4  3  3
  2.602562866836e-01    4  4  4  4
 -5.818891828871e-07    5  1  4  1
 -1.359406878071e-03    5  1  4  2
  7.734537545811e-03    5  1  4  3
  5.605788912891e-02    5  1  5  1
 -1.359705452454e-03    5  2  4  1
  8.098959571161e-04    5  2  4  2
  2.320291777350e-03    5  2  4  3
  1.067675409131e-02    5  2  5  1
  5.486738299449e-03    5  2  5  2
  7.734115628244e-03    5  3  4  1
  2.319445357981e-03    5  3  4  2
 -8.089767179622e-04    5  3  4  3
  5.170707502312e-03    5  3  5  1
  2.135387033699e-03    5  3  5  2
  1.156204935646e-02    5  3  5  3
 -3.787688583409e-07    5  4  1  1
 -7.128376737679e-04    5  4  2  1
  1.119620763885e-03    5  4  2  2
  4.055847421189e-03    5  4  3  1
  3.208025870306e-03    5  4  3  2
 -1.118789408259e-03    5  4  3  3
  1.253918781507e-05    5  4  4  4
  1.550974323025e-02    5  4  5  4
  2.419018534146e-01    5  5  1  1
  5.598928438919e-03    5  5  2  1
  2.943979128129e-01    5  5  2  2
  2.711511224045e-03    5  5  3  1
  2.952933441092e-03    5  5  3  2
  3.027991473058e-01    5  5  3  3
  2.288968595318e-01    5  5  4  4
  3.560114026661e-05    5  5  5  4
  2.601640912151e-01    5  5  5  5
 -7.517141480028e-07    6  1  4  1
  1.269944884426e-02    6  1  4  2
 -3.690190916686e-03    6  1  4  3
  8.425868572265e-09    6  1  5  1
  1.757297424004e-03    6  1  5  2
  1.537487797294e-02    6  1  5  3
  5.605815209947e-02    6  1  6  1
  1.269886476455e-02    6  2  4  1
 -4.108656606841e-03    6  2  4  2
 -4.996594303561e-04    6  2  4  3
  1.757116540333e-03    6  2  5  1
  2.323861670038e-04    6  2  5  2
  4.838652548544e-03    6  2  5  3
  3.589605779572e-03    6  2  6  1
  7.223133514884e-03    6  2  6  2
 -3.689870982077e-03    6  3  4  1
 -5.003099734472e-04    6  3  4  2
  4.109415551821e-03    6  3  4  3
  1.537504147173e-02    6  3  5  1
  4.837912530466e-03    6  3  5  2
 -2.327653993476e-04    6  3  5  3
 -3.822920421184e-03    6  3  6  1
 -9.995091534872e-04    6  3  6  2
  9.825215531178e-03    6  3  6  3
 -2.671511234497e-07    6  4  1  1
  6.659494557694e-03    6  4  2  1
 -5.681503272445e-03    6  4  2  2
 -1.935008860405e-03    6  4  3  1
 -6.913420158754e-04    6  4  3  2
  5.682832128342e-03    6  4  3  3
 -2.476807702175e-04    6  4  4  4
 -6.451835835933e-05    6  4  5  4
  1.639290518672e-04    6  4  5  5
  1.566895742627e-02    6  4  6  4
 -6.296299652721e-08    6  5  1  1
  9.214185992914e-04    6  5  2  1
  3.212794395082e-04    6  5  2  2
  8.062720625939e-03    6  5  3  1
  6.690615112604e-03    6  5  3  2
 -3.220852972649e-04    6  5  3  3
 -6.458084629967e-05    6  5  4  4
  1.638214307437e-04    6  5  5  4
  1.381424448600e-04    6  5  5  5
 -4.843866691452e-05    6  5  6  4
  1.575976758925e-02    6  5  6  5
  2.419019343198e-01    6  6  1  1
  1.882272568646e-03    6  6  2  1
  2.967990571818e-01    6  6  2  2
 -2.004799141118e-03    6  6  3  1
 -1.382174185263e-03    6  6  3  2
  3.003972209350e-01    6  6  3  3
  2.290560325445e-01    6  6  4  4
 -4.852833026649e-05    6  6  5  4
  2.291462545207e-01    6  6  5  5
  8.402167288992e-05    6  6  6  4
 -7.379357822624e-05    6  6  6  5
  2.600047673147e-01    6  6  6  6
 -1.071436258635e+00    1  1  0  0
  4.767259600417e-07    2  1  0  0
 -1.607405361878e+00    2  2  0  0
  1.610321761790e-08    3  1  0  0
 -2.057800246568e-07    3  2  0  0
 -1.607404918234e+00    3  3  0  0
 -9.275568359391e-01    4  4  0  0
  3.687941757360e-07    5  4  0  0
 -9.275550973658e-01    5  5  0  0
 -2.130682567777e-07    6  4  0  0
  2.693753187529e-07    6  5  0  0
 -9.275549401550e-01    6  6  0  0
    -54.185946742121   0  0  0  0
