 &FCI NORB=6 ,NELEC=7 ,MS2=5,
  ORBSYM=1,1,1,1,1,1,
  ISYM=1,
 &END
  8.989160617730e-01    1  1  1  1
 -1.110561270782e-09    2  1  1  1
  4.050033429450e-02    2  1  2  1
  8.334065174977e-01    2  2  1  1
 -1.680258908307e-09    2  2  2  1
  9.345808676072e-01    2  2  2  2
  4.278051875821e-12    3  1  1  1
 -1.747480072199e-10    3  1  2  2
  4.050033429447e-02    3  1  3  1
  9.061028268752e-11    3  2  2  1
 -2.352277034539e-08    3  2  3  1
  2.028656307935e-02    3  2  3  2
  8.334065174977e-01    3  3  1  1
  4.536528175000e-08    3  3  2  1
  8.940077414485e-01    3  3  2  2
  6.472559491416e-12    3  3  3  1
  9.345808676071e-01    3  3  3  3
  2.503052629040e-02    4  1  4  1
  9.490309623313e-03    4  2  4  1
  3.659315562849e-02    4  2  4  2
 -3.655679598201e-05    4  3  4  1
  7.410068910371e-11    4  3  4  2
  3.659317486505e-02    4  3  4  3
  8.628023801226e-01    4  4  1  1
 -1.849108102234e-02    4  4  2  1
  8.583549532856e-01    4  4  2  2
  7.122788436336e-05    4  4  3  1
 -1.595184232715e-10    4  4  3  2
  8.583549118746e-01    4  4  3  3
  9.275170121874e-01    4  4  4  4
  3.655668388980e-05    5  1  4  2
  9.490280523751e-03    5  1  4  3
  2.503048599551e-02    5  1  5  1
  3.655681720800e-05    5  2  4  1
 -7.410054219590e-11    5  2  4  2
 -1.635624719622e-02    5  2  4  3
 -9.490286034066e-03    5  2  5  1
  3.659319359287e-02    5  2  5  2
  9.490315133661e-03    5  3  4  1
  1.635622795967e-02    5  3  4  2
  7.410073155456e-11    5  3  4  3
  3.655670511567e-05    5  3  5  1
 -7.410058476860e-11    5  3  5  2
  3.659317435634e-02    5  3  5  3
 -7.122779836957e-05    5  4  2  1
  1.595177782425e-10    5  4  2  2
 -1.849105869806e-02    5  4  3  1
  2.070549957785e-08    5  4  3  2
 -1.595188295897e-10    5  4  3  3
  3.639578092128e-02    5  4  5  4
  8.628024510146e-01    5  5  1  1
  1.849103637372e-02    5  5  2  1
  8.583548611477e-01    5  5  2  2
 -7.122771237553e-05    5  5  3  1
  1.595181830799e-10    5  5  3  2
  8.583549025586e-01    5  5  3  3
  8.547254413158e-01    5  5  4  4
  9.275169941293e-01    5  5  5  5
  5.288342152455e-03    6  1  1  1
 -7.156307641797e-09    6  1  2  1
  1.909330190818e-03    6  1  2  2
  2.756627706820e-11    6  1  3  1
  1.909330190812e-03    6  1  3  3
  3.978482161423e-03    6  1  4  4
  3.978477667831e-03    6  1  5  5
  1.001153887806e-02    6  1  6  1
 -3.763650363037e-08    6  2  1  1
 -7.138428863560e-04    6  2  2  1
 -3.769182433767e-08    6  2  2  2
  1.454941079544e-12    6  2  3  2
 -3.693640860543e-08    6  2  3  3
  5.669539136380e-04    6  2  4  4
  2.184053062434e-06    6  2  5  4
 -5.670261981016e-04    6  2  5  5
 -2.107471863529e-10    6  2  6  1
  9.422444655512e-03    6  2  6  2
  1.449768514524e-10    6  3  1  1
  1.422800690981e-10    6  3  2  2
 -7.138428863567e-04    6  3  3  1
 -3.777078697932e-10    6  3  3  2
  1.451899539383e-10    6  3  3  3
 -2.183913841551e-06    6  3  4  4
  5.669900558715e-04    6  3  5  4
  2.184192283307e-06    6  3  5  5
  9.422444655511e-03    6  3  6  3
  6.652855275962e-04    6  4  4  1
  7.864011955513e-04    6  4  4  2
 -3.029227623382e-06    6  4  4  3
  3.029233618443e-06    6  4  5  2
  7.864027518913e-04    6  4  5  3
  9.306599704086e-03    6  4  6  4
  3.029242093355e-06    6  5  4  2
  7.864049520104e-04    6  5  4  3
  6.652847940869e-04    6  5  5  1
 -7.864065083522e-04    6  5  5  2
  3.029248088423e-06    6  5  5  3
  9.306599521997e-03    6  5  6  5
  4.045314643753e-01    6  6  1  1
 -4.895040617619e-11    6  6  2  1
  4.074313039182e-01    6  6  2  2
  4.074313039182e-01    6  6  3  3
  4.063862233988e-01    6  6  4  4
  4.063862206681e-01    6  6  5  5
  5.959444039311e-06    6  6  6  1
 -5.562041559813e-09    6  6  6  2
  2.142517198765e-11    6  6  6  3
  3.221703007999e-01    6  6  6  6
 -5.475801980309e+00    1  1  0  0
  1.052934830842e-09    2  1  0  0
 -5.553635949403e+00    2  2  0  0
 -4.056883639904e-12    3  1  0  0
 -5.553635949403e+00    3  3  0  0
 -5.539618408747e+00    4  4  0  0
 -5.539618368945e+00    5  5  0  0
 -1.707008458914e-02    6  1  0  0
  1.961079717655e-07    6  2  0  0
 -7.554134469331e-10    6  3  0  0
 -2.956888400540e+00    6  6  0  0
   -101.630263726568   0  0  0  0
