#INFO: **** input file is /projects/bamu3429/BENCHMARK/fresh_atoms/MRPT/vtz/atoms/Fe_1/mrpt.py ****
import json
from pyscf import gto,scf,mcscf, fci, lo, ci, cc
from pyscf.scf import ROHF, UHF,ROKS
import numpy as np
import pandas as pd

# THIS IS WERE IT STARTS ====================================

df=json.load(open("../../../trail.json"))

spins={'Sc':1, 'Ti':2, 'V':3, 'Cr':6, 'Mn':5, 'Fe':4, 'Cu':1}

nd={'Sc':(1,0), 'Ti':(2,0), 'V':(3,0), 'Cr':(5,0), 'Mn':(5,0), 'Fe':(5,1), 'Cu':(5,5)}

cas={'Sc':3, 'Ti':4, 'V':5, 'Cr':6, 'Mn':7, 'Fe':8, 'Cu':11}

datacsv={}
for nm in ['atom','charge','method','basis','pseudopotential','hf',
           'totalenergy','totalenergy-stocherr','totalenergy-syserr']:
  datacsv[nm]=[]

basis='vtz'
el='Fe'
charge=1

mol=gto.Mole()
mol.ecp={}
mol.basis={}
mol.ecp[el]=gto.basis.parse_ecp(df[el]['ecp'])
mol.basis[el]=gto.basis.parse(df[el][basis])
mol.charge=charge
if el == 'Cr' or el == 'Cu':
  mol.spin=spins[el]-charge
else:
  mol.spin=spins[el]+charge
mol.build(atom="%s 0. 0. 0."%el,verbose=4)

m=ROHF(mol)
m.level_shift=1000.0
dm=m.from_chk("../../../../HF/atoms/"+el+basis+str(charge)+".chk")
hf=m.kernel(dm)
m.analyze()

from pyscf.shciscf import shci
mc = shci.SHCISCF(m, 6, cas[el]-charge)
#mc.fcisolver.conv_tol = 1e-14
mc.fcisolver.mpiprefix="srun -n20"
mc.fcisolver.num_thrds=12
mc.verbose = 4
cas=mc.kernel()[0]
 
from pyscf.icmpspt import icmpspt
pt=icmpspt.icmpspt(mc,rdmM=500, PTM=1000,\
                          pttype="MRLCC",\
                          third_order=True,\
                          fully_ic=True,\
                          do_dm4=True)

datacsv['atom'].append(el)
datacsv['charge'].append(charge)
datacsv['method'].append('MRPT')
datacsv['basis'].append(basis)
datacsv['pseudopotential'].append('trail')
datacsv['hf'].append(hf)
datacsv['totalenergy'].append(cas+pt)
datacsv['totalenergy-stocherr'].append(0.0)
datacsv['totalenergy-syserr'].append(0.0)
pd.DataFrame(datacsv).to_csv(el+".csv",index=False)

#INFO: ******************** input file end ********************


System: ('Linux', 'bnode0302.rc.int.colorado.edu', '3.10.0-514.41.1.el7.x86_64', '#1 SMP Wed Jan 17 10:26:16 EST 2018', 'x86_64', 'x86_64')  Threads 28
Python 2.7.11 (default, Mar 22 2016, 01:42:54) 
[GCC Intel(R) C++ gcc 4.8 mode]
numpy 1.11.1  scipy 0.17.1
Date: Wed Apr 18 16:29:31 2018
PySCF version 1.4.6
PySCF path  /projects/bamu3429/softwares/pyscf_uptodate/pyscf
GIT ORIG_HEAD f3591ef22170896a4cdc2aadaa6f5da388ffcadb
GIT HEAD      ref: refs/heads/master
GIT master branch  1847583fb1d2472321833d3c71c8b7008e5fabf5

[INPUT] VERBOSE 4
[INPUT] num atoms = 1
[INPUT] num electrons = 15
[INPUT] charge = 1
[INPUT] spin (= nelec alpha-beta = 2S) = 5
[INPUT] symmetry False subgroup None
[INPUT]  1 Fe     0.000000000000   0.000000000000   0.000000000000 AA    0.000000000000   0.000000000000   0.000000000000 Bohr
[INPUT] ---------------- BASIS SET ---------------- 
[INPUT] l, kappa, [nprim/nctr], expnt,             c_1 c_2 ...
[INPUT] Fe
[INPUT] 0    0    [12   /1   ]  41.79315189       0.013363
                                21.4479766        -0.225831
                                13.50597996       1.092302
                                9.47978339        -1.379238
                                4.48116767        0.183004
                                2.00533715        0.377557
                                1.21557711        0.591529
                                0.52042955        0.236703
                                0.24120153        -0.029854
                                0.11142434        0.02048
                                0.05213724        -0.006828
                                0.02419858        0.002604
[INPUT] 0    0    [12   /1   ]  41.79315189       -0.002034
                                21.4479766        0.04181
                                13.50597996       -0.22265
                                9.47978339        0.296462
                                4.48116767        -0.039261
                                2.00533715        -0.090727
                                1.21557711        -0.230375
                                0.52042955        -0.197211
                                0.24120153        0.111234
                                0.11142434        0.439139
                                0.05213724        0.516418
                                0.02419858        0.126845
[INPUT] 0    0    [12   /1   ]  41.79315189       -0.004624
                                21.4479766        0.139122
                                13.50597996       -0.88629
                                9.47978339        1.342491
                                4.48116767        -0.386645
                                2.00533715        -1.289136
                                1.21557711        0.203208
                                0.52042955        0.587093
                                0.24120153        0.75499
                                0.11142434        0.148125
                                0.05213724        -0.57141
                                0.02419858        -0.318371
[INPUT] 0    0    [12   /1   ]  41.79315189       -0.003085
                                21.4479766        0.157954
                                13.50597996       -1.176019
                                9.47978339        1.974187
                                4.48116767        -0.963904
                                2.00533715        -2.385892
                                1.21557711        2.080105
                                0.52042955        1.415026
                                0.24120153        -1.191846
                                0.11142434        -1.007091
                                0.05213724        0.554221
                                0.02419858        0.59334
[INPUT] 0    0    [1    /1   ]  0.02419858           1
[INPUT] 0    0    [1    /1   ]  0.01123134           1
[INPUT] 1    0    [12   /1   ]  66.19105244       0.00032
                                34.58074578       -0.003142
                                17.77781378       0.029707
                                9.38371315        -0.152873
                                5.85185491        0.094627
                                3.39352009        0.227547
                                1.80084269        0.448024
                                0.88349057        0.318306
                                0.45376195        0.097682
                                0.18864625        0.012314
                                0.07756623        -0.001004
                                0.03189313        0.000474
[INPUT] 1    0    [12   /1   ]  66.19105244       -1.8e-05
                                34.58074578       0.000416
                                17.77781378       -0.005911
                                9.38371315        0.03555
                                5.85185491        -0.025962
                                3.39352009        -0.059781
                                1.80084269        -0.122371
                                0.88349057        -0.102075
                                0.45376195        0.039881
                                0.18864625        0.346137
                                0.07756623        0.528115
                                0.03189313        0.237416
[INPUT] 1    0    [12   /1   ]  66.19105244       -0.000861
                                34.58074578       0.002748
                                17.77781378       0.01593
                                9.38371315        -0.209763
                                5.85185491        0.179034
                                3.39352009        0.814145
                                1.80084269        0.03855
                                0.88349057        -0.875838
                                0.45376195        -0.34746
                                0.18864625        0.631788
                                0.07756623        0.399045
                                0.03189313        0.003561
[INPUT] 1    0    [12   /1   ]  66.19105244       -0.001607
                                34.58074578       0.006226
                                17.77781378       0.025483
                                9.38371315        -0.54041
                                5.85185491        1.16772
                                3.39352009        0.772818
                                1.80084269        -1.572667
                                0.88349057        -0.61263
                                0.45376195        1.561245
                                0.18864625        -0.107594
                                0.07756623        -0.646326
                                0.03189313        0.002096
[INPUT] 1    0    [1    /1   ]  0.03189313           1
[INPUT] 1    0    [1    /1   ]  0.01311358           1
[INPUT] 2    0    [10   /1   ]  58.21685909       0.000311
                                24.96806153       -0.010386
                                12.44413704       0.126915
                                5.48395408        0.166806
                                2.79137309        0.262721
                                1.34407118        0.316542
                                0.61230651        0.280074
                                0.27095461        0.158069
                                0.12811374        0.049028
                                0.05904405        0.008369
[INPUT] 2    0    [10   /1   ]  58.21685909       0.000374
                                24.96806153       0.007401
                                12.44413704       -0.12958
                                5.48395408        -0.233171
                                2.79137309        -0.387571
                                1.34407118        -0.056586
                                0.61230651        0.33938
                                0.27095461        0.403227
                                0.12811374        0.20401
                                0.05904405        0.046291
[INPUT] 2    0    [10   /1   ]  58.21685909       -0.001716
                                24.96806153       -0.000551
                                12.44413704       0.130748
                                5.48395408        0.429828
                                2.79137309        0.259447
                                1.34407118        -0.684658
                                0.61230651        -0.396877
                                0.27095461        0.349872
                                0.12811374        0.4289
                                0.05904405        0.113763
[INPUT] 2    0    [1    /1   ]  0.05904405           1
[INPUT] 2    0    [1    /1   ]  0.02721175           1
[INPUT] 3    0    [1    /1   ]  3.759443             1
[INPUT] 3    0    [1    /1   ]  1.028316             1
[INPUT] 3    0    [1    /1   ]  0.28127405           1
[INPUT] 4    0    [1    /1   ]  3.347806             1
[INPUT] 4    0    [1    /1   ]  0.91572139           1
nuclear repulsion = 0
number of shells = 22
number of NR pGTOs = 399
number of NR cGTOs = 88
basis = {'Fe': [[0, [41.79315189, 0.013363], [21.4479766, -0.225831], [13.50597996, 1.092302], [9.47978339, -1.379238], [4.48116767, 0.183004], [2.00533715, 0.377557], [1.21557711, 0.591529], [0.52042955, 0.236703], [0.24120153, -0.029854], [0.11142434, 0.02048], [0.05213724, -0.006828], [0.02419858, 0.002604]], [0, [41.79315189, -0.002034], [21.4479766, 0.04181], [13.50597996, -0.22265], [9.47978339, 0.296462], [4.48116767, -0.039261], [2.00533715, -0.090727], [1.21557711, -0.230375], [0.52042955, -0.197211], [0.24120153, 0.111234], [0.11142434, 0.439139], [0.05213724, 0.516418], [0.02419858, 0.126845]], [0, [41.79315189, -0.004624], [21.4479766, 0.139122], [13.50597996, -0.88629], [9.47978339, 1.342491], [4.48116767, -0.386645], [2.00533715, -1.289136], [1.21557711, 0.203208], [0.52042955, 0.587093], [0.24120153, 0.75499], [0.11142434, 0.148125], [0.05213724, -0.57141], [0.02419858, -0.318371]], [0, [41.79315189, -0.003085], [21.4479766, 0.157954], [13.50597996, -1.176019], [9.47978339, 1.974187], [4.48116767, -0.963904], [2.00533715, -2.385892], [1.21557711, 2.080105], [0.52042955, 1.415026], [0.24120153, -1.191846], [0.11142434, -1.007091], [0.05213724, 0.554221], [0.02419858, 0.59334]], [0, [0.02419858, 1.0]], [0, [0.01123134, 1.0]], [1, [66.19105244, 0.00032], [34.58074578, -0.003142], [17.77781378, 0.029707], [9.38371315, -0.152873], [5.85185491, 0.094627], [3.39352009, 0.227547], [1.80084269, 0.448024], [0.88349057, 0.318306], [0.45376195, 0.097682], [0.18864625, 0.012314], [0.07756623, -0.001004], [0.03189313, 0.000474]], [1, [66.19105244, -1.8e-05], [34.58074578, 0.000416], [17.77781378, -0.005911], [9.38371315, 0.03555], [5.85185491, -0.025962], [3.39352009, -0.059781], [1.80084269, -0.122371], [0.88349057, -0.102075], [0.45376195, 0.039881], [0.18864625, 0.346137], [0.07756623, 0.528115], [0.03189313, 0.237416]], [1, [66.19105244, -0.000861], [34.58074578, 0.002748], [17.77781378, 0.01593], [9.38371315, -0.209763], [5.85185491, 0.179034], [3.39352009, 0.814145], [1.80084269, 0.03855], [0.88349057, -0.875838], [0.45376195, -0.34746], [0.18864625, 0.631788], [0.07756623, 0.399045], [0.03189313, 0.003561]], [1, [66.19105244, -0.001607], [34.58074578, 0.006226], [17.77781378, 0.025483], [9.38371315, -0.54041], [5.85185491, 1.16772], [3.39352009, 0.772818], [1.80084269, -1.572667], [0.88349057, -0.61263], [0.45376195, 1.561245], [0.18864625, -0.107594], [0.07756623, -0.646326], [0.03189313, 0.002096]], [1, [0.03189313, 1.0]], [1, [0.01311358, 1.0]], [2, [58.21685909, 0.000311], [24.96806153, -0.010386], [12.44413704, 0.126915], [5.48395408, 0.166806], [2.79137309, 0.262721], [1.34407118, 0.316542], [0.61230651, 0.280074], [0.27095461, 0.158069], [0.12811374, 0.049028], [0.05904405, 0.008369]], [2, [58.21685909, 0.000374], [24.96806153, 0.007401], [12.44413704, -0.12958], [5.48395408, -0.233171], [2.79137309, -0.387571], [1.34407118, -0.056586], [0.61230651, 0.33938], [0.27095461, 0.403227], [0.12811374, 0.20401], [0.05904405, 0.046291]], [2, [58.21685909, -0.001716], [24.96806153, -0.000551], [12.44413704, 0.130748], [5.48395408, 0.429828], [2.79137309, 0.259447], [1.34407118, -0.684658], [0.61230651, -0.396877], [0.27095461, 0.349872], [0.12811374, 0.4289], [0.05904405, 0.113763]], [2, [0.05904405, 1.0]], [2, [0.02721175, 1.0]], [3, [3.759443, 1.0]], [3, [1.028316, 1.0]], [3, [0.28127405, 1.0]], [4, [3.347806, 1.0]], [4, [0.91572139, 1.0]]]}
ecp = {'Fe': [10, [[-1, [[], [[16.90683491, 16.0]], [[18.40258134, 26847.81569895], [6.30300831, -133.54888707], [18.42848726, -26765.4049232], [18.43432023, 1.00742417]], [[7.01300654, 270.50935856]]]], [0, [[], [], [[9.62463353, 20308.8999348], [9.1270955, -17595.21707731], [7.5416384, 1884.69012383], [12.70900949, -4483.50209856], [8.14863339, -1094.38597968], [16.27611739, 1032.95376659]], []]], [1, [[], [], [[11.36514719, -905.00711112], [14.56762424, 34640.9358259], [15.05861359, -42299.94223895], [17.41337089, 10633.68808757], [18.3746752, -5844.19723669], [17.04734437, 3803.80414779]], []]], [2, [[], [], [[10.13935738, -11031.18647055], [13.45796076, 16711.37502047], [10.97387824, 37989.95033676], [11.92919033, -41782.92514683], [17.7123012, 3812.58339812], [17.32108913, -5718.00854971]], []]]]]}
CPU time:         3.48


******** <class 'pyscf.scf.rohf.ROHF'> flags ********
method = ROHF
initial guess = minao
damping factor = 0
level shift factor = 1000.0
DIIS = <class 'pyscf.scf.diis.CDIIS'>
DIIS start cycle = 1
DIIS space = 8
SCF tol = 1e-09
SCF gradient tol = None
max. SCF cycles = 50
direct_scf = True
direct_scf_tol = 1e-13
chkfile to save SCF result = /rc_scratch/bamu3429/tmpEw1TSC
max_memory 4000 MB (current use 122 MB)
num. doubly occ = 5  num. singly occ = 5
Set gradient conv threshold to 3.16228e-05
init E= -122.804248528632
  HOMO = 499.612154114832  LUMO = 999.853097582998
cycle= 1 E= -122.804248528632  delta_E= 2.84e-14  |g|= 3.57e-06  |ddm|= 1.07e-08
  HOMO = -0.387845885110332  LUMO = -0.146902416957193
Extra cycle  E= -122.804248528635  delta_E= -2.87e-12  |g|= 4.88e-07  |ddm|= 3.55e-06
converged SCF energy = -122.804248528635
**** MO energy ****
                Roothaan           | alpha              | beta
MO #1   energy= -4.71785009216612  | -4.91212014772971  | -4.52358003778936  occ= 2
MO #2   energy= -3.10132986415168  | -3.35515276188496  | -2.84750696641841  occ= 2
MO #3   energy= -3.10132984753544  | -3.35515256741946  | -2.84750712765145  occ= 2
MO #4   energy= -3.09385828535823  | -3.27731209556444  | -2.91040447515202  occ= 2
MO #5   energy= -0.850473346031619 | -0.921009956656828 | -0.779936735294652 occ= 2
MO #6   energy= -0.493331738804401 | -1.01206987280644  | 0.0254063662148685 occ= 1
MO #7   energy= -0.493331738804273 | -1.01206987280669  | 0.025406366214963  occ= 1
MO #8   energy= -0.456908618625073 | -0.980111361291987 | 0.0662942461806868 occ= 1
MO #9   energy= -0.456908528862938 | -0.980111281097386 | 0.0662943454934193 occ= 1
MO #10  energy= -0.387845885110332 | -0.567660054096704 | -0.20803168109034  occ= 1
MO #11  energy= -0.146902416957193 | -0.17491840268015  | -0.118886431234234 occ= 0
MO #12  energy= -0.146902404509422 | -0.174918380272769 | -0.118886428746068 occ= 0
MO #13  energy= -0.141994558060164 | -0.166315509379867 | -0.117673606740464 occ= 0
MO #14  energy= -0.0846782573219833 | -0.0871587873857445 | -0.0821977399070958 occ= 0
MO #15  energy= -0.0554281979090343 | -0.0606014794632716 | -0.0502549163547897 occ= 0
MO #16  energy= -0.0554281951064629 | -0.0606014756726691 | -0.0502549145402588 occ= 0
MO #17  energy= -0.0542827138932183 | -0.0590855778551018 | -0.0494798499313358 occ= 0
MO #18  energy= -0.0460538852362551 | -0.0478569487731894 | -0.0442508210279131 occ= 0
MO #19  energy= -0.046053885236156 | -0.0478569487731746 | -0.0442508210281034 occ= 0
MO #20  energy= -0.0454199326841932 | -0.0466377693846056 | -0.0442020956297319 occ= 0
MO #21  energy= -0.0453712278247321 | -0.0471213196207657 | -0.0436211410748459 occ= 0
MO #22  energy= -0.0453712261758141 | -0.0471213178432601 | -0.0436211395537204 occ= 0
MO #23  energy= 0.0314128638399956 | 0.0209056618736731 | 0.0419200485862014 occ= 0
MO #24  energy= 0.0717038010243503 | 0.0624700393634484 | 0.0809375744935447 occ= 0
MO #25  energy= 0.0717038010243674 | 0.0624700393634545 | 0.0809375744934605 occ= 0
MO #26  energy= 0.072533830414793  | 0.050741389051764  | 0.0943262717778238 occ= 0
MO #27  energy= 0.0725338432217367 | 0.0507414067970198 | 0.0943262796464532 occ= 0
MO #28  energy= 0.0726976203249437 | 0.0668631539657682 | 0.0785320877377369 occ= 0
MO #29  energy= 0.0739997457847477 | 0.0646798201884089 | 0.0833196589619504 occ= 0
MO #30  energy= 0.0739997514682223 | 0.064679825665625  | 0.0833196648552673 occ= 0
MO #31  energy= 0.0778006961026213 | 0.0579317915782909 | 0.0976696006269583 occ= 0
MO #32  energy= 0.688436283921104  | 0.654864898185742  | 0.722007667027635  occ= 0
MO #33  energy= 0.749807264232711  | 0.725187355457003  | 0.774427173008422  occ= 0
MO #34  energy= 0.749807264232715  | 0.725187355457004  | 0.774427173008423  occ= 0
MO #35  energy= 0.754695693388156  | 0.729256826627986  | 0.780134560148324  occ= 0
MO #36  energy= 0.754695693388189  | 0.729256826627943  | 0.780134560148438  occ= 0
MO #37  energy= 0.756255999878003  | 0.735675096496803  | 0.7768369032592    occ= 0
MO #38  energy= 0.756256012534644  | 0.735675113113816  | 0.776836911955473  occ= 0
MO #39  energy= 0.756506671323121  | 0.738304240009035  | 0.774709102637212  occ= 0
MO #40  energy= 0.847448560848211  | 0.818687815888215  | 0.876209307221271  occ= 0
MO #41  energy= 0.84915449360412   | 0.782652647525862  | 0.91565635299534   occ= 0
MO #42  energy= 0.849154493604209  | 0.78265264752595   | 0.915656352995349  occ= 0
MO #43  energy= 0.864308160099543  | 0.795779452098594  | 0.932836784803226  occ= 0
MO #44  energy= 0.864308198009787  | 0.795779485124363  | 0.932836827609034  occ= 0
MO #45  energy= 1.76099155717314   | 1.69697086801244   | 1.82501224633384   occ= 0
MO #46  energy= 1.76099162168964   | 1.69697096658943   | 1.82501227678984   occ= 0
MO #47  energy= 1.78694285184734   | 1.73624424171098   | 1.8376414619837    occ= 0
MO #48  energy= 3.15293565813784   | 3.05899173247732   | 3.24687958379835   occ= 0
MO #49  energy= 3.15293565813784   | 3.05899173247732   | 3.24687958379835   occ= 0
MO #50  energy= 3.16446937402397   | 3.11022948768406   | 3.21870926036388   occ= 0
MO #51  energy= 3.16720081029027   | 3.09799663540788   | 3.23640498517266   occ= 0
MO #52  energy= 3.16720084396563   | 3.09799669199206   | 3.23640499593919   occ= 0
MO #53  energy= 3.1689122497981    | 3.06889347138639   | 3.26893102820981   occ= 0
MO #54  energy= 3.16891224979815   | 3.06889347138736   | 3.26893102820894   occ= 0
MO #55  energy= 3.85226579489262   | 3.81546830539093   | 3.88906328439429   occ= 0
MO #56  energy= 3.85226579489262   | 3.81546830539093   | 3.88906328439429   occ= 0
MO #57  energy= 3.85920718196417   | 3.81937103530744   | 3.8990433286209    occ= 0
MO #58  energy= 3.85920718196417   | 3.81937103530745   | 3.8990433286209    occ= 0
MO #59  energy= 3.8684509333312    | 3.83418219223231   | 3.9027196751545    occ= 0
MO #60  energy= 3.86845093333127   | 3.83418219223235   | 3.90271967515458   occ= 0
MO #61  energy= 3.87562262381185   | 3.84734517064526   | 3.9039000763025    occ= 0
MO #62  energy= 3.87562265956996   | 3.84734521483268   | 3.9039001036315    occ= 0
MO #63  energy= 3.87825173042943   | 3.85233224770483   | 3.90417120818905   occ= 0
MO #64  energy= 4.36165926306342   | 4.25860424165406   | 4.46471428683309   occ= 0
MO #65  energy= 4.36165926306344   | 4.25860424165419   | 4.46471428683294   occ= 0
MO #66  energy= 4.36477961123411   | 4.32649095075088   | 4.40306827039004   occ= 0
MO #67  energy= 4.38863709162332   | 4.28326844209187   | 4.49400572133952   occ= 0
MO #68  energy= 4.38863715775291   | 4.28326850151438   | 4.49400579417717   occ= 0
MO #69  energy= 4.90817374853202   | 4.84008765287015   | 4.97625984441747   occ= 0
MO #70  energy= 7.94163851373884   | 7.86719194047498   | 8.01608508700269   occ= 0
MO #71  energy= 7.94163860896888   | 7.86719208064103   | 8.01608513729673   occ= 0
MO #72  energy= 7.98009100686575   | 7.92359966917505   | 8.03658234455647   occ= 0
MO #73  energy= 10.7602996881906   | 10.6310183737659   | 10.8895810026153   occ= 0
MO #74  energy= 10.7602996881906   | 10.6310183737659   | 10.8895810026153   occ= 0
MO #75  energy= 10.7832068020442   | 10.6453573327199   | 10.9210562713686   occ= 0
MO #76  energy= 10.7832068020444   | 10.6453573327188   | 10.92105627137     occ= 0
MO #77  energy= 10.7896083433236   | 10.6936275857421   | 10.885589100905    occ= 0
MO #78  energy= 10.7896084026509   | 10.6936276768125   | 10.8855891284893   occ= 0
MO #79  energy= 10.7902947434609   | 10.7153923453244   | 10.8651971415974   occ= 0
MO #80  energy= 14.328281483074    | 14.2466186414273   | 14.4099443247207   occ= 0
MO #81  energy= 14.328281483074    | 14.2466186414272   | 14.4099443247206   occ= 0
MO #82  energy= 14.3404474066      | 14.2513114497694   | 14.4295833634305   occ= 0
MO #83  energy= 14.3404474066      | 14.2513114497694   | 14.4295833634306   occ= 0
MO #84  energy= 14.3586457900833   | 14.2831743279037   | 14.4341172523688   occ= 0
MO #85  energy= 14.3586457900834   | 14.2831743279037   | 14.4341172523689   occ= 0
MO #86  energy= 14.3733353147663   | 14.3133310036256   | 14.4333396250218   occ= 0
MO #87  energy= 14.3733353816291   | 14.3133310904136   | 14.4333396719599   occ= 0
MO #88  energy= 14.378880220511    | 14.3251389867821   | 14.4326214560272   occ= 0
 ** Mulliken pop on meta-lowdin orthogonal AOs  **
 ** Mulliken pop  **
pop of  0Fe 3s        1.99996
pop of  0Fe 4s        0.95457
pop of  0Fe 5s        0.02537
pop of  0Fe 6s        0.00757
pop of  0Fe 7s        0.00820
pop of  0Fe 8s        0.00402
pop of  0Fe 3px       1.99978
pop of  0Fe 3py       1.99978
pop of  0Fe 3pz       1.99991
pop of  0Fe 4px       0.00012
pop of  0Fe 4py       0.00012
pop of  0Fe 4pz       0.00005
pop of  0Fe 5px       0.00001
pop of  0Fe 5py       0.00001
pop of  0Fe 5pz       0.00000
pop of  0Fe 6px       0.00001
pop of  0Fe 6py       0.00001
pop of  0Fe 6pz       0.00000
pop of  0Fe 7px       0.00000
pop of  0Fe 7py       0.00000
pop of  0Fe 7pz       0.00000
pop of  0Fe 8px       0.00000
pop of  0Fe 8py       0.00000
pop of  0Fe 8pz       0.00000
pop of  0Fe 3dxy      0.99645
pop of  0Fe 3dyz      0.99726
pop of  0Fe 3dz^2     1.99912
pop of  0Fe 3dxz      0.99726
pop of  0Fe 3dx2-y2    0.99645
pop of  0Fe 4dxy      0.00252
pop of  0Fe 4dyz      0.00184
pop of  0Fe 4dz^2     0.00051
pop of  0Fe 4dxz      0.00184
pop of  0Fe 4dx2-y2    0.00252
pop of  0Fe 5dxy      0.00030
pop of  0Fe 5dyz      0.00024
pop of  0Fe 5dz^2     0.00012
pop of  0Fe 5dxz      0.00024
pop of  0Fe 5dx2-y2    0.00030
pop of  0Fe 6dxy      0.00069
pop of  0Fe 6dyz      0.00060
pop of  0Fe 6dz^2     0.00051
pop of  0Fe 6dxz      0.00060
pop of  0Fe 6dx2-y2    0.00069
pop of  0Fe 7dxy      0.00003
pop of  0Fe 7dyz      0.00003
pop of  0Fe 7dz^2     0.00002
pop of  0Fe 7dxz      0.00003
pop of  0Fe 7dx2-y2    0.00003
pop of  0Fe 4fy^3     0.00000
pop of  0Fe 4fxyz     0.00000
pop of  0Fe 4fyz^2    0.00003
pop of  0Fe 4fz^3     0.00000
pop of  0Fe 4fxz^2    0.00003
pop of  0Fe 4fzx^2    0.00000
pop of  0Fe 4fx^3     0.00000
pop of  0Fe 5fy^3     0.00000
pop of  0Fe 5fxyz     0.00000
pop of  0Fe 5fyz^2    0.00005
pop of  0Fe 5fz^3     0.00002
pop of  0Fe 5fxz^2    0.00005
pop of  0Fe 5fzx^2    0.00000
pop of  0Fe 5fx^3     0.00000
pop of  0Fe 6fy^3     0.00000
pop of  0Fe 6fxyz     0.00000
pop of  0Fe 6fyz^2    0.00000
pop of  0Fe 6fz^3     0.00001
pop of  0Fe 6fxz^2    0.00000
pop of  0Fe 6fzx^2    0.00000
pop of  0Fe 6fx^3     0.00000
pop of  0Fe 5g-4      0.00000
pop of  0Fe 5g-3      0.00000
pop of  0Fe 5g-2      0.00000
pop of  0Fe 5g-1      0.00001
pop of  0Fe 5g 0      0.00001
pop of  0Fe 5g 1      0.00001
pop of  0Fe 5g 2      0.00000
pop of  0Fe 5g 3      0.00000
pop of  0Fe 5g 4      0.00000
pop of  0Fe 6g-4      0.00000
pop of  0Fe 6g-3      0.00000
pop of  0Fe 6g-2      0.00000
pop of  0Fe 6g-1      0.00002
pop of  0Fe 6g 0      0.00001
pop of  0Fe 6g 1      0.00002
pop of  0Fe 6g 2      0.00000
pop of  0Fe 6g 3      0.00000
pop of  0Fe 6g 4      0.00000
 ** Mulliken atomic charges  **
charge of  0Fe =      1.00000

******** <class 'pyscf.mcscf.mc1step.CASSCF'> flags ********
CAS (6e+1e, 6o), ncore = 4, nvir = 78
max_cycle_macro = 50
max_cycle_micro = 4
conv_tol = 1e-07
conv_tol_grad = None
orbital rotation max_stepsize = 0.02
augmented hessian ah_max_cycle = 30
augmented hessian ah_conv_tol = 1e-12
augmented hessian ah_linear dependence = 1e-14
augmented hessian ah_level shift = 0
augmented hessian ah_start_tol = 2.5
augmented hessian ah_start_cycle = 3
augmented hessian ah_grad_trust_region = 3
kf_trust_region = 3
kf_interval = 4
ci_response_space = 4
ci_grad_trust_region = 3
with_dep4 0
natorb = False
canonicalization = True
sorting_mo_energy = False
chkfile = ./scratch/136964/tmpj8UDt9
max_memory 4000 MB (current use 229 MB)
internal_rotation = False

******** SHCI flags ********
executable             = /home/bamu3429/softwares/dice/Dice
mpiprefix              = srun -n20
scratchDirectory       = ./scratch/136964
integralFile           = ./FCIDUMP
configFile             = ./input.dat
outputFile             = ./output.dat
maxIter                = 6
sweep_iter             = []
sweep_epsilon          = []
nPTiter                = 0
Stochastic             = True
fullrestart            = False
restart                = False
num_thrds              = 12
memory                 = None

CASCI E = -122.804248528635  S^2 = 8.7500000
Set conv_tol_grad to 0.000316228
macro iter 1 (1 JK  1 micro), CASSCF E = -122.804248528635  dE = 0  S^2 = 8.7500000
               |grad[o]|=4.6e-07  |grad[c]|= None  |ddm|=    0
1-step CASSCF converged in 1 macro (1 JK 1 micro) steps
CASSCF canonicalization
CASSCF energy = -122.804248528635


--------------------------------------------------
                 ICMPSPT CALCULATION              
--------------------------------------------------

Perturbation type: MRLCC
With fully internally contracted scheme
With third order correction

Preparing necessary RDMs
......production of RDMs took       2.11 sec
Reading binary 4RDM from DICE
......reading the RDM took          1.03 sec

(GOOD) Trace 4RDM:    840.0 =    7*    6*    5*    4
(GOOD) Trace 3RDM:    210.0 =    7*    6*    5
(GOOD) Trace 2RDM:     42.0 =    7*    6
(GOOD) Trace 1RDM:      7.0 =    7

Producing the integrals
......production of INT took      86.43 sec

Energy_core = -101.63026373
Energy      = -122.80424853

WARNING: Have to use natural orbitals from CAASCF
         offdiagonal elements:    0.98888372

Basic ingredients written to int/
......savings of INGREDIENTS took      17.80 sec

Second-order:
perturber CCVV --        -0.097760971
perturber CCAV --        -0.037656932
perturber ACVV --        -0.185930004
perturber CCAA --        -0.017757489
perturber AAVV --        -0.150624052
perturber CAAV --        -0.108776537
perturber AAAV --        -0.004852033
perturber AAAC --        -0.000000000
Total:                   -0.603358019

Third-order:              0.001705099

Total PT       --        -0.601652920

