 &FCI NORB=6 ,NELEC=7 ,MS2=5,
  ORBSYM=1,1,1,1,1,1,
  ISYM=1,
 &END
  8.985882242796e-01    1  1  1  1
  4.066629263355e-02    2  1  2  1
  8.323364466463e-01    2  2  1  1
  9.305139164266e-01    2  2  2  2
  3.546522398987e-02    3  1  3  1
  9.460573841013e-04    3  2  3  1
  2.548883651970e-02    3  2  3  2
  8.424245950583e-01    3  3  1  1
 -1.874812449268e-03    3  3  2  1
  8.787083112470e-01    3  3  2  2
  9.287351643752e-01    3  3  3  3
  9.292745044673e-03    4  1  3  2
  3.546522398987e-02    4  1  4  1
  9.292745044673e-03    4  2  3  1
 -9.460573841013e-04    4  2  4  1
  2.548883651970e-02    4  2  4  2
 -1.841553629876e-02    4  3  2  1
  3.622716025096e-02    4  3  4  3
  8.424245950583e-01    4  4  1  1
  1.874812449268e-03    4  4  2  1
  8.787083112470e-01    4  4  2  2
  8.562808438733e-01    4  4  3  3
  9.287351643752e-01    4  4  4  4
  1.946819587058e-02    5  1  5  1
 -1.857195926522e-02    5  2  3  3
  1.890737248856e-03    5  2  4  3
  1.857195926522e-02    5  2  4  4
  4.137667341140e-02    5  2  5  2
  9.366636338685e-03    5  3  3  2
  1.604275614976e-02    5  3  4  1
 -9.535799626273e-04    5  3  4  2
  3.607109801177e-02    5  3  5  3
 -1.604275614976e-02    5  4  3  1
 -9.535799626273e-04    5  4  3  2
 -9.366636338685e-03    5  4  4  2
  3.607109801177e-02    5  4  5  4
  8.713731712641e-01    5  5  1  1
  8.431853117753e-01    5  5  2  2
  8.534144186685e-01    5  5  3  3
  8.534144186685e-01    5  5  4  4
  9.224046856178e-01    5  5  5  5
 -2.159289432818e-03    6  1  2  1
  1.472167007599e-04    6  1  3  3
  1.446051042432e-03    6  1  4  3
 -1.472167007600e-04    6  1  4  4
  9.488201604063e-03    6  1  6  1
 -1.110518111109e-02    6  2  1  1
 -1.092776884333e-02    6  2  2  2
 -1.046611081629e-02    6  2  3  3
 -1.046611081629e-02    6  2  4  4
 -1.094998593052e-02    6  2  5  5
  9.316921481320e-03    6  2  6  2
  6.914826922326e-05    6  3  3  1
 -1.785543937512e-05    6  3  3  2
  6.792159196376e-04    6  3  4  1
  5.098551346148e-04    6  3  5  3
 -5.190632182476e-05    6  3  5  4
  9.034381776978e-03    6  3  6  3
  6.792159196376e-04    6  4  3  1
 -6.914826922327e-05    6  4  4  1
 -1.785543937511e-05    6  4  4  2
 -5.190632182477e-05    6  4  5  3
 -5.098551346148e-04    6  4  5  4
  9.034381776978e-03    6  4  6  4
  1.111914177417e-03    6  5  3  3
 -1.131995565331e-04    6  5  4  3
 -1.111914177416e-03    6  5  4  4
 -1.601381539528e-03    6  5  5  2
  8.904427530847e-03    6  5  6  5
  3.949172181994e-01    6  6  1  1
  3.972788828531e-01    6  6  2  2
  3.969804042636e-01    6  6  3  3
  3.969804042636e-01    6  6  4  4
  3.960434610008e-01    6  6  5  5
 -1.624675600141e-03    6  6  6  2
  3.130725359469e-01    6  6  6  6
 -5.476273503419e+00    1  1  0  0
 -5.545863352773e+00    2  2  0  0
 -5.542553272198e+00    3  3  0  0
 -5.542553272198e+00    4  4  0  0
 -5.528380908025e+00    5  5  0  0
  5.739094484945e-02    6  2  0  0
 -2.898388270439e+00    6  6  0  0
   -101.630983784406   0  0  0  0
