#INFO: **** input file is /projects/bamu3429/BENCHMARK/fresh_atoms/MRPT/atoms/Fe_1/mrpt.py ****
import json
from pyscf import gto,scf,mcscf, fci, lo, ci, cc
from pyscf.scf import ROHF, UHF,ROKS
import numpy as np
import pandas as pd

# THIS IS WERE IT STARTS ====================================

df=json.load(open("../../trail.json"))

spins={'Sc':1, 'Ti':2, 'V':3, 'Cr':6, 'Mn':5, 'Fe':4, 'Cu':1}

nd={'Sc':(1,0), 'Ti':(2,0), 'V':(3,0), 'Cr':(5,0), 'Mn':(5,0), 'Fe':(5,1), 'Cu':(5,5)}

cas={'Sc':3, 'Ti':4, 'V':5, 'Cr':6, 'Mn':7, 'Fe':8, 'Cu':11}

datacsv={}
for nm in ['atom','charge','method','basis','pseudopotential','hf',
           'totalenergy','totalenergy-stocherr','totalenergy-syserr']:
  datacsv[nm]=[]

basis='vdz'
el='Fe'
charge=1

mol=gto.Mole()
mol.ecp={}
mol.basis={}
mol.ecp[el]=gto.basis.parse_ecp(df[el]['ecp'])
mol.basis[el]=gto.basis.parse(df[el][basis])
mol.charge=charge
if el == 'Cr' or el == 'Cu':
  mol.spin=spins[el]-charge
else:
  mol.spin=spins[el]+charge
mol.build(atom="%s 0. 0. 0."%el,verbose=4)

m=ROHF(mol)
m.level_shift=1000.0
dm=m.from_chk("../../../HF/atoms/"+el+basis+str(charge)+".chk")
hf=m.kernel(dm)
m.analyze()

from pyscf.shciscf import shci
mc = shci.SHCISCF(m, 6, cas[el]-charge)
#mc.fcisolver.conv_tol = 1e-14
mc.fcisolver.mpiprefix="mpirun -np 28"
mc.fcisolver.num_thrds=12
mc.verbose = 4
cas=mc.kernel()[0]
 
from pyscf.icmpspt import icmpspt
pt=icmpspt.icmpspt(mc,rdmM=500, PTM=1000,\
                          pttype="MRLCC",\
                          third_order=True,\
                          fully_ic=True,\
                          do_dm4=True)

datacsv['atom'].append(el)
datacsv['charge'].append(charge)
datacsv['method'].append('MRPT')
datacsv['basis'].append(basis)
datacsv['pseudopotential'].append('trail')
datacsv['hf'].append(hf)
datacsv['totalenergy'].append(cas+pt)
datacsv['totalenergy-stocherr'].append(0.0)
datacsv['totalenergy-syserr'].append(0.0)
pd.DataFrame(datacsv).to_csv(el+".csv",index=False)

#INFO: ******************** input file end ********************


System: ('Linux', 'bnode0308.rc.int.colorado.edu', '3.10.0-514.41.1.el7.x86_64', '#1 SMP Wed Jan 17 10:26:16 EST 2018', 'x86_64', 'x86_64')  Threads 1
Python 2.7.11 (default, Mar 22 2016, 01:42:54) 
[GCC Intel(R) C++ gcc 4.8 mode]
numpy 1.11.1  scipy 0.17.1
Date: Fri Mar 23 16:29:12 2018
PySCF version 1.4
PySCF path  /projects/bamu3429/softwares/pyscf_uptodate/pyscf
GIT ORIG_HEAD e2292e6edec2b0e0024c21b81de03db1d7bd4121
GIT HEAD      ref: refs/heads/master
GIT master branch  f3591ef22170896a4cdc2aadaa6f5da388ffcadb

[INPUT] VERBOSE 4
[INPUT] num atoms = 1
[INPUT] num electrons = 15
[INPUT] charge = 1
[INPUT] spin (= nelec alpha-beta = 2S) = 5
[INPUT] symmetry False subgroup None
[INPUT]  1 Fe     0.000000000000   0.000000000000   0.000000000000 AA    0.000000000000   0.000000000000   0.000000000000 Bohr
[INPUT] ---------------- BASIS SET ---------------- 
[INPUT] l, kappa, [nprim/nctr], expnt,             c_1 c_2 ...
[INPUT] Fe
[INPUT] 0    0    [12   /1   ]  41.79315189       0.013363
                                21.4479766        -0.225831
                                13.50597996       1.092302
                                9.47978339        -1.379238
                                4.48116767        0.183004
                                2.00533715        0.377557
                                1.21557711        0.591529
                                0.52042955        0.236703
                                0.24120153        -0.029854
                                0.11142434        0.02048
                                0.05213724        -0.006828
                                0.02419858        0.002604
[INPUT] 0    0    [12   /1   ]  41.79315189       -0.002034
                                21.4479766        0.04181
                                13.50597996       -0.22265
                                9.47978339        0.296462
                                4.48116767        -0.039261
                                2.00533715        -0.090727
                                1.21557711        -0.230375
                                0.52042955        -0.197211
                                0.24120153        0.111234
                                0.11142434        0.439139
                                0.05213724        0.516418
                                0.02419858        0.126845
[INPUT] 0    0    [12   /1   ]  41.79315189       -0.004323
                                21.4479766        0.132016
                                13.50597996       -0.841007
                                9.47978339        1.270608
                                4.48116767        -0.357855
                                2.00533715        -1.172638
                                1.21557711        0.080918
                                0.52042955        0.564238
                                0.24120153        0.803759
                                0.11142434        0.166439
                                0.05213724        -0.599817
                                0.02419858        -0.320989
[INPUT] 0    0    [1    /1   ]  0.02419858           1
[INPUT] 0    0    [1    /1   ]  0.01123134           1
[INPUT] 1    0    [12   /1   ]  66.19105244       0.00032
                                34.58074578       -0.003142
                                17.77781378       0.029707
                                9.38371315        -0.152873
                                5.85185491        0.094627
                                3.39352009        0.227547
                                1.80084269        0.448024
                                0.88349057        0.318306
                                0.45376195        0.097682
                                0.18864625        0.012314
                                0.07756623        -0.001004
                                0.03189313        0.000474
[INPUT] 1    0    [12   /1   ]  66.19105244       -1.8e-05
                                34.58074578       0.000416
                                17.77781378       -0.005911
                                9.38371315        0.03555
                                5.85185491        -0.025962
                                3.39352009        -0.059781
                                1.80084269        -0.122371
                                0.88349057        -0.102075
                                0.45376195        0.039881
                                0.18864625        0.346137
                                0.07756623        0.528115
                                0.03189313        0.237416
[INPUT] 1    0    [12   /1   ]  66.19105244       -0.000834
                                34.58074578       0.002604
                                17.77781378       0.016549
                                9.38371315        -0.211504
                                5.85185491        0.182022
                                3.39352009        0.789997
                                1.80084269        0.110593
                                0.88349057        -0.853215
                                0.45376195        -0.426908
                                0.18864625        0.584503
                                0.07756623        0.418096
                                0.03189313        0.004159
[INPUT] 1    0    [1    /1   ]  0.03189313           1
[INPUT] 1    0    [1    /1   ]  0.01311358           1
[INPUT] 2    0    [10   /1   ]  58.21685909       0.000311
                                24.96806153       -0.010386
                                12.44413704       0.126915
                                5.48395408        0.166806
                                2.79137309        0.262721
                                1.34407118        0.316542
                                0.61230651        0.280074
                                0.27095461        0.158069
                                0.12811374        0.049028
                                0.05904405        0.008369
[INPUT] 2    0    [10   /1   ]  58.21685909       0.000264
                                24.96806153       0.008003
                                12.44413704       -0.131894
                                5.48395408        -0.228203
                                2.79137309        -0.382561
                                1.34407118        -0.063105
                                0.61230651        0.332607
                                0.27095461        0.402603
                                0.12811374        0.213988
                                0.05904405        0.04923
[INPUT] 2    0    [1    /1   ]  0.05904405           1
[INPUT] 2    0    [1    /1   ]  0.02721175           1
[INPUT] 3    0    [1    /1   ]  2.703381             1
[INPUT] 3    0    [1    /1   ]  1.2459129            1
nuclear repulsion = 0
number of shells = 16
number of NR pGTOs = 276
number of NR cGTOs = 54
basis = {'Fe': [[0, [41.79315189, 0.013363], [21.4479766, -0.225831], [13.50597996, 1.092302], [9.47978339, -1.379238], [4.48116767, 0.183004], [2.00533715, 0.377557], [1.21557711, 0.591529], [0.52042955, 0.236703], [0.24120153, -0.029854], [0.11142434, 0.02048], [0.05213724, -0.006828], [0.02419858, 0.002604]], [0, [41.79315189, -0.002034], [21.4479766, 0.04181], [13.50597996, -0.22265], [9.47978339, 0.296462], [4.48116767, -0.039261], [2.00533715, -0.090727], [1.21557711, -0.230375], [0.52042955, -0.197211], [0.24120153, 0.111234], [0.11142434, 0.439139], [0.05213724, 0.516418], [0.02419858, 0.126845]], [0, [41.79315189, -0.004323], [21.4479766, 0.132016], [13.50597996, -0.841007], [9.47978339, 1.270608], [4.48116767, -0.357855], [2.00533715, -1.172638], [1.21557711, 0.080918], [0.52042955, 0.564238], [0.24120153, 0.803759], [0.11142434, 0.166439], [0.05213724, -0.599817], [0.02419858, -0.320989]], [0, [0.02419858, 1.0]], [0, [0.01123134, 1.0]], [1, [66.19105244, 0.00032], [34.58074578, -0.003142], [17.77781378, 0.029707], [9.38371315, -0.152873], [5.85185491, 0.094627], [3.39352009, 0.227547], [1.80084269, 0.448024], [0.88349057, 0.318306], [0.45376195, 0.097682], [0.18864625, 0.012314], [0.07756623, -0.001004], [0.03189313, 0.000474]], [1, [66.19105244, -1.8e-05], [34.58074578, 0.000416], [17.77781378, -0.005911], [9.38371315, 0.03555], [5.85185491, -0.025962], [3.39352009, -0.059781], [1.80084269, -0.122371], [0.88349057, -0.102075], [0.45376195, 0.039881], [0.18864625, 0.346137], [0.07756623, 0.528115], [0.03189313, 0.237416]], [1, [66.19105244, -0.000834], [34.58074578, 0.002604], [17.77781378, 0.016549], [9.38371315, -0.211504], [5.85185491, 0.182022], [3.39352009, 0.789997], [1.80084269, 0.110593], [0.88349057, -0.853215], [0.45376195, -0.426908], [0.18864625, 0.584503], [0.07756623, 0.418096], [0.03189313, 0.004159]], [1, [0.03189313, 1.0]], [1, [0.01311358, 1.0]], [2, [58.21685909, 0.000311], [24.96806153, -0.010386], [12.44413704, 0.126915], [5.48395408, 0.166806], [2.79137309, 0.262721], [1.34407118, 0.316542], [0.61230651, 0.280074], [0.27095461, 0.158069], [0.12811374, 0.049028], [0.05904405, 0.008369]], [2, [58.21685909, 0.000264], [24.96806153, 0.008003], [12.44413704, -0.131894], [5.48395408, -0.228203], [2.79137309, -0.382561], [1.34407118, -0.063105], [0.61230651, 0.332607], [0.27095461, 0.402603], [0.12811374, 0.213988], [0.05904405, 0.04923]], [2, [0.05904405, 1.0]], [2, [0.02721175, 1.0]], [3, [2.703381, 1.0]], [3, [1.2459129, 1.0]]]}
ecp = {'Fe': [10, [[-1, [[], [[16.90683491, 16.0]], [[18.40258134, 26847.81569895], [6.30300831, -133.54888707], [18.42848726, -26765.4049232], [18.43432023, 1.00742417]], [[7.01300654, 270.50935856]]]], [0, [[], [], [[9.62463353, 20308.8999348], [9.1270955, -17595.21707731], [7.5416384, 1884.69012383], [12.70900949, -4483.50209856], [8.14863339, -1094.38597968], [16.27611739, 1032.95376659]], []]], [1, [[], [], [[11.36514719, -905.00711112], [14.56762424, 34640.9358259], [15.05861359, -42299.94223895], [17.41337089, 10633.68808757], [18.3746752, -5844.19723669], [17.04734437, 3803.80414779]], []]], [2, [[], [], [[10.13935738, -11031.18647055], [13.45796076, 16711.37502047], [10.97387824, 37989.95033676], [11.92919033, -41782.92514683], [17.7123012, 3812.58339812], [17.32108913, -5718.00854971]], []]]]]}
CPU time:         0.62


******** <class 'pyscf.scf.rohf.ROHF'> flags ********
method = ROHF
initial guess = minao
damping factor = 0
level shift factor = 1000.0
DIIS = <class 'pyscf.scf.diis.CDIIS'>
DIIS start cycle = 1
DIIS space = 8
SCF tol = 1e-09
SCF gradient tol = None
max. SCF cycles = 50
direct_scf = True
direct_scf_tol = 1e-13
chkfile to save SCF result = /projects/bamu3429/BENCHMARK/fresh_atoms/MRPT/atoms/Fe_1/tmpBKHcdg
max_memory 4000 MB (current use 81 MB)
num. doubly occ = 5  num. singly occ = 5
Set gradient conv threshold to 3.16228e-05
init E= -122.802301775661
  HOMO = 499.607632278145  LUMO = 999.848859608385
cycle= 1 E= -122.802301775661  delta_E= -7.11e-14  |g|= 2.07e-06  |ddm|= 1.07e-08
  HOMO = -0.392367721687971  LUMO = -0.15114039156757
Extra cycle  E= -122.802301775662  delta_E= -8.67e-13  |g|= 6.29e-07  |ddm|= 3.21e-06
converged SCF energy = -122.802301775662
**** MO energy ****
                Roothaan           | alpha              | beta
MO #1   energy= -4.73568112841617  | -4.92826638790525  | -4.54309587092451  occ= 2
MO #2   energy= -3.12083622322458  | -3.39657938452074  | -2.84509306192842  occ= 2
MO #3   energy= -3.11163543474906  | -3.31726189491862  | -2.90600897457951  occ= 2
MO #4   energy= -3.11163543474906  | -3.31726189491862  | -2.90600897457951  occ= 2
MO #5   energy= -0.864486107966084 | -0.934762669169707 | -0.79420954676246  occ= 2
MO #6   energy= -0.50955483068127  | -1.02564733863699  | 0.00653775204662909 occ= 1
MO #7   energy= -0.496828705101238 | -1.01460692074912  | 0.0209496101657501 occ= 1
MO #8   energy= -0.496828705101238 | -1.01460692074913  | 0.0209496101657481 occ= 1
MO #9   energy= -0.459054674438616 | -0.981468510291288 | 0.0633593181556496 occ= 1
MO #10  energy= -0.392367721687971 | -0.567049039130328 | -0.217686376884364 occ= 1
MO #11  energy= -0.15114039156757  | -0.181929278250834 | -0.120351504884308 occ= 0
MO #12  energy= -0.145656885878568 | -0.172386917849245 | -0.11892685390789  occ= 0
MO #13  energy= -0.145656885878567 | -0.172386917849245 | -0.11892685390789  occ= 0
MO #14  energy= -0.0842062123125813 | -0.0863156945757514 | -0.0820967376385455 occ= 0
MO #15  energy= -0.0562904951137996 | -0.0615224319370297 | -0.0510585582905698 occ= 0
MO #16  energy= -0.0550899599013823 | -0.059969812891462 | -0.0502101069113006 occ= 0
MO #17  energy= -0.0550899599013821 | -0.0599698128914621 | -0.0502101069113005 occ= 0
MO #18  energy= -0.0459991641871641 | -0.0477706498627991 | -0.0442276850664001 occ= 0
MO #19  energy= -0.0457735982598375 | -0.0475289625612582 | -0.0440182407467202 occ= 0
MO #20  energy= -0.045773598259837 | -0.0475289625612577 | -0.0440182407467196 occ= 0
MO #21  energy= -0.0453467705575776 | -0.0465730471400584 | -0.0441204939750974 occ= 0
MO #22  energy= -0.0450784665485529 | -0.0467795777895506 | -0.0433773649681455 occ= 0
MO #23  energy= 0.0389930389115727 | 0.0304636875106603 | 0.0475223978378438 occ= 0
MO #24  energy= 0.0706479994553707 | 0.0609050059339405 | 0.0803909603791518 occ= 0
MO #25  energy= 0.0714222061800444 | 0.0616082659093578 | 0.0812361092783411 occ= 0
MO #26  energy= 0.0714222061800455 | 0.0616082659093574 | 0.0812361092783406 occ= 0
MO #27  energy= 0.0716589125487154 | 0.0653533939994711 | 0.0779644310979616 occ= 0
MO #28  energy= 0.0735184497770882 | 0.0495876328284778 | 0.0974492667256966 occ= 0
MO #29  energy= 0.0739005672044863 | 0.0639178096419197 | 0.0838832726205083 occ= 0
MO #30  energy= 0.079673884530559  | 0.05775239974565   | 0.10159536931547   occ= 0
MO #31  energy= 0.0796738845305611 | 0.0577523997456505 | 0.10159536931547   occ= 0
MO #32  energy= 1.4264685350278    | 1.38703664229471   | 1.4659004277609    occ= 0
MO #33  energy= 1.43738093355642   | 1.3255769809157    | 1.54918485577909   occ= 0
MO #34  energy= 1.4475569714991    | 1.33575640026714   | 1.55935748707267   occ= 0
MO #35  energy= 1.4475569714991    | 1.33575640026713   | 1.55935748707266   occ= 0
MO #36  energy= 1.47170270182944   | 1.35679334244083   | 1.58661196628359   occ= 0
MO #37  energy= 1.56877290658773   | 1.5029398471536    | 1.63460593552018   occ= 0
MO #38  energy= 3.14694921025434   | 3.04882154209671   | 3.24507687841198   occ= 0
MO #39  energy= 3.18204354192586   | 3.10415567258745   | 3.25993141126427   occ= 0
MO #40  energy= 3.18204354192586   | 3.10415567258745   | 3.25993141126427   occ= 0
MO #41  energy= 3.2657157084627    | 3.16304672275199   | 3.36838469417341   occ= 0
MO #42  energy= 3.26682137432081   | 3.17701075096711   | 3.3566319976745    occ= 0
MO #43  energy= 3.26682137432081   | 3.17701075096711   | 3.35663199767451   occ= 0
MO #44  energy= 3.26732669705535   | 3.18951185777875   | 3.34514153633194   occ= 0
MO #45  energy= 3.27870015264442   | 3.16994596904318   | 3.38745433624564   occ= 0
MO #46  energy= 3.28184687012095   | 3.20236444264587   | 3.36132929759602   occ= 0
MO #47  energy= 3.28184687012095   | 3.20236444264587   | 3.36132929759603   occ= 0
MO #48  energy= 9.32349341121508   | 9.20979323526353   | 9.43719358716664   occ= 0
MO #49  energy= 9.32761935012934   | 9.21682737756518   | 9.43841132269346   occ= 0
MO #50  energy= 9.32761935012934   | 9.2168273775652    | 9.43841132269348   occ= 0
MO #51  energy= 9.33840764468029   | 9.25204149468452   | 9.42477379467608   occ= 0
MO #52  energy= 9.3415899361239    | 9.22167130361905   | 9.46150856862873   occ= 0
MO #53  energy= 9.35967379807972   | 9.2810876645698    | 9.43825993158962   occ= 0
MO #54  energy= 9.35967379807972   | 9.28108766456982   | 9.43825993158963   occ= 0
 ** Mulliken pop on meta-lowdin orthogonal AOs  **
 ** Mulliken pop  **
pop of  0Fe 3s        1.99996
pop of  0Fe 4s        0.96304
pop of  0Fe 5s        0.01367
pop of  0Fe 6s        0.01785
pop of  0Fe 7s        0.00523
pop of  0Fe 3px       1.99985
pop of  0Fe 3py       1.99985
pop of  0Fe 3pz       1.99982
pop of  0Fe 4px       0.00007
pop of  0Fe 4py       0.00007
pop of  0Fe 4pz       0.00014
pop of  0Fe 5px       0.00000
pop of  0Fe 5py       0.00000
pop of  0Fe 5pz       0.00000
pop of  0Fe 6px       0.00000
pop of  0Fe 6py       0.00000
pop of  0Fe 6pz       0.00000
pop of  0Fe 7px       0.00000
pop of  0Fe 7py       0.00000
pop of  0Fe 7pz       0.00000
pop of  0Fe 3dxy      1.99901
pop of  0Fe 3dyz      0.99725
pop of  0Fe 3dz^2     0.99702
pop of  0Fe 3dxz      0.99725
pop of  0Fe 3dx2-y2    0.99790
pop of  0Fe 4dxy      0.00023
pop of  0Fe 4dyz      0.00168
pop of  0Fe 4dz^2     0.00204
pop of  0Fe 4dxz      0.00168
pop of  0Fe 4dx2-y2    0.00120
pop of  0Fe 5dxy      0.00073
pop of  0Fe 5dyz      0.00106
pop of  0Fe 5dz^2     0.00118
pop of  0Fe 5dxz      0.00106
pop of  0Fe 5dx2-y2    0.00088
pop of  0Fe 6dxy      0.00002
pop of  0Fe 6dyz      0.00002
pop of  0Fe 6dz^2     0.00002
pop of  0Fe 6dxz      0.00002
pop of  0Fe 6dx2-y2    0.00002
pop of  0Fe 4fy^3     0.00003
pop of  0Fe 4fxyz     0.00000
pop of  0Fe 4fyz^2    0.00001
pop of  0Fe 4fz^3     0.00002
pop of  0Fe 4fxz^2    0.00001
pop of  0Fe 4fzx^2    0.00000
pop of  0Fe 4fx^3     0.00003
pop of  0Fe 5fy^3     0.00003
pop of  0Fe 5fxyz     0.00000
pop of  0Fe 5fyz^2    0.00000
pop of  0Fe 5fz^3     0.00001
pop of  0Fe 5fxz^2    0.00000
pop of  0Fe 5fzx^2    0.00000
pop of  0Fe 5fx^3     0.00003
 ** Mulliken atomic charges  **
charge of  0Fe =      1.00000

******** <class 'pyscf.mcscf.mc1step.CASSCF'> flags ********
CAS (6e+1e, 6o), ncore = 4, nvir = 44
max_cycle_macro = 50
max_cycle_micro = 4
conv_tol = 1e-07
conv_tol_grad = None
orbital rotation max_stepsize = 0.02
augmented hessian ah_max_cycle = 30
augmented hessian ah_conv_tol = 1e-12
augmented hessian ah_linear dependence = 1e-14
augmented hessian ah_level shift = 0
augmented hessian ah_start_tol = 2.5
augmented hessian ah_start_cycle = 3
augmented hessian ah_grad_trust_region = 3
kf_trust_region = 3
kf_interval = 4
ci_response_space = 4
ci_grad_trust_region = 3
with_dep4 0
natorb = False
canonicalization = True
chkfile = ./scratch/88071/tmpEey_yE
max_memory 4000 MB (current use 97 MB)
internal_rotation = False

******** SHCI flags ********
executable             = /home/bamu3429/softwares/dice/Dice
mpiprefix              = mpirun -np 28
scratchDirectory       = ./scratch/88071
integralFile           = ./FCIDUMP
configFile             = ./input.dat
outputFile             = ./output.dat
maxIter                = 6
sweep_iter             = []
sweep_epsilon          = []
nPTiter                = 0
Stochastic             = True
fullrestart            = False
restart                = False
num_thrds              = 12
memory                 = None

CASCI E = -122.802301775663  S^2 = 8.7500000
Set conv_tol_grad to 0.000316228
macro iter 1 (1 JK  1 micro), CASSCF E = -122.802301775663  dE = 0  S^2 = 8.7500000
               |grad[o]|=6.29e-07  |grad[c]|= None  |ddm|=    0
1-step CASSCF converged in 1 macro (1 JK 1 micro) steps
CASSCF canonicalization
CASSCF energy = -122.802301775663


--------------------------------------------------
                 ICMPSPT CALCULATION              
--------------------------------------------------

Perturbation type: MRLCC
With fully internally contracted scheme
With third order correction

Preparing necessary RDMs
......production of RDMs took       0.41 sec
Reading binary 4RDM from DICE
......reading the RDM took          0.95 sec

(GOOD) Trace 4RDM:    840.0 =    7*    6*    5*    4
(GOOD) Trace 3RDM:    210.0 =    7*    6*    5
(GOOD) Trace 2RDM:     42.0 =    7*    6
(GOOD) Trace 1RDM:      7.0 =    7

Producing the integrals
......production of INT took      86.75 sec

Energy_core =  -101.630983784
Energy      =  -122.802301776

WARNING: Have to use natural orbitals from CAASCF
         offdiagonal elements: 0.697447085509

Basic ingredients written to int/
......savings of INGREDIENTS took      15.04 sec

Second-order:
perturber CCVV --        -0.072181396
perturber CCAV --        -0.033809466
perturber ACVV --        -0.127911727
perturber CCAA --        -0.017596112
perturber AAVV --        -0.126197332
perturber CAAV --        -0.093910037
perturber AAAV --        -0.002228775
perturber AAAC --        -0.000000000
Total:                   -0.473834846

Third-order:              0.000339539

Total PT       --        -0.473495307

