 &FCI NORB=9 ,NELEC=9 ,MS2=3,
  ORBSYM=1,1,1,1,1,1,1,1,1,
  ISYM=1,
 &END
  6.529179224272e-01    1  1  1  1
  2.956566710181e-02    2  1  2  1
  5.888603228678e-01    2  2  1  1
  6.509753105847e-01    2  2  2  2
  2.956566710181e-02    3  1  3  1
  1.224470672024e-09    3  2  2  2
  2.892431326144e-02    3  2  3  2
  5.888603228678e-01    3  3  1  1
  5.931259047706e-01    3  3  2  2
 -1.224471406951e-09    3  3  3  2
  6.509753105847e-01    3  3  3  3
  1.709940364942e-02    4  1  1  1
  7.638142564259e-03    4  1  2  2
  7.638142564259e-03    4  1  3  3
  7.832822531923e-03    4  1  4  1
 -1.662171543047e-03    4  2  2  1
  4.757875422661e-08    4  2  3  1
  1.918941819995e-03    4  2  4  2
 -4.757875411269e-08    4  3  2  1
 -1.662171543047e-03    4  3  3  1
  1.918941819995e-03    4  3  4  3
  2.534028803072e-01    4  4  1  1
  2.301227479922e-01    4  4  2  2
  2.301227479922e-01    4  4  3  3
  1.099788454667e-02    4  4  4  1
  2.819199240485e-01    4  4  4  4
  3.697397974551e-04    5  1  2  2
  2.273306714247e-05    5  1  3  2
 -3.697397974569e-04    5  1  3  3
  9.552021267731e-03    5  1  5  1
 -1.895809719590e-03    5  2  2  1
 -1.526557613186e-04    5  2  3  1
  5.623055441492e-04    5  2  4  2
  4.598081476171e-05    5  2  4  3
  4.965186712567e-03    5  2  5  2
 -1.526557613186e-04    5  3  2  1
  1.895809719590e-03    5  3  3  1
  4.598081476174e-05    5  3  4  2
 -5.623055441492e-04    5  3  4  3
  4.965186712567e-03    5  3  5  3
  2.476124367355e-03    5  4  2  2
  1.980822333195e-04    5  4  3  2
 -2.476124367354e-03    5  4  3  3
  4.454996764200e-03    5  4  5  1
  1.185789746138e-02    5  4  5  4
  4.128082694553e-01    5  5  1  1
  3.466135980548e-01    5  5  2  2
  3.466135980548e-01    5  5  3  3
  4.293026300918e-02    5  5  4  1
  3.465913686488e-01    5  5  4  4
  7.096305732109e-01    5  5  5  5
 -2.273292808815e-05    6  1  2  2
  3.697390227804e-04    6  1  3  2
  2.273292808846e-05    6  1  3  3
 -4.481254232634e-12    6  1  5  1
 -3.550226240955e-09    6  1  5  4
  9.552017398550e-03    6  1  6  1
  1.526561433753e-04    6  2  2  1
 -1.895804662669e-03    6  2  3  1
 -4.598100918519e-05    6  2  4  2
  5.623028839210e-04    6  2  4  3
 -4.327590394740e-10    6  2  5  2
 -2.407199167714e-03    6  2  5  3
  4.965179450115e-03    6  2  6  2
 -1.895804662669e-03    6  3  2  1
 -1.526561433752e-04    6  3  3  1
  5.623028839210e-04    6  3  4  2
  4.598100918507e-05    6  3  4  3
  2.407199167714e-03    6  3  5  2
 -4.327590546389e-10    6  3  5  3
  4.965179450115e-03    6  3  6  3
 -1.980829396210e-04    6  4  2  2
  2.476115559326e-03    6  4  3  2
  1.980829396182e-04    6  4  3  3
  3.662679104151e-09    6  4  5  1
  1.109038140464e-10    6  4  5  4
  4.454997281595e-03    6  4  6  1
  1.185790655879e-02    6  4  6  4
  1.007531637468e-10    6  5  1  1
 -3.096416155839e-10    6  5  2  2
 -3.096416119442e-10    6  5  3  3
  1.338429218759e-10    6  5  4  1
  4.044700070812e-10    6  5  4  4
  1.300825271483e-09    6  5  5  5
  1.504808347573e-02    6  5  6  5
  4.128082384593e-01    6  6  1  1
  3.466135736342e-01    6  6  2  2
  3.466135736342e-01    6  6  3  3
  4.293025786304e-02    6  6  4  1
  3.465913646189e-01    6  6  4  4
  6.795343500176e-01    6  6  5  5
  1.300819911992e-09    6  6  6  5
  7.096304607272e-01    6  6  6  6
  9.052281851857e-03    7  1  2  1
  2.550457002517e-05    7  1  3  1
 -3.813439829404e-04    7  1  4  2
 -1.715554285674e-06    7  1  4  3
  1.908988756929e-03    7  1  5  2
  1.341215251683e-04    7  1  5  3
 -1.341210511720e-04    7  1  6  2
  1.908992388108e-03    7  1  6  3
  1.306636372855e-02    7  1  7  1
  1.169701620983e-01    7  2  1  1
  1.699730324042e-01    7  2  2  2
  3.977995445851e-05    7  2  3  2
  1.468548472067e-01    7  2  3  3
 -1.393909528992e-02    7  2  4  1
 -3.830466730637e-02    7  2  4  4
 -1.828663034908e-03    7  2  5  1
 -2.476221412017e-03    7  2  5  4
 -9.506850388443e-02    7  2  5  5
  1.286952089936e-04    7  2  6  1
  1.782987640230e-04    7  2  6  4
  1.824753306673e-09    7  2  6  5
 -9.506846835787e-02    7  2  6  6
  1.488957311003e-01    7  2  7  2
  4.255915035116e-04    7  3  1  1
  5.661036630401e-04    7  3  2  2
  1.155771008461e-02    7  3  3  2
  6.456603591654e-04    7  3  3  3
 -5.961845328070e-05    7  3  4  1
 -1.710632858027e-04    7  3  4  4
 -1.286918580102e-04    7  3  5  1
 -1.782970495983e-04    7  3  5  4
 -4.115665055220e-04    7  3  5  5
 -1.828623141503e-03    7  3  6  1
 -2.476200991146e-03    7  3  6  4
 -9.947677341958e-09    7  3  6  5
 -4.115630349930e-04    7  3  6  6
  5.467135115171e-04    7  3  7  2
  1.214247566535e-02    7  3  7  3
  8.865196963550e-04    7  4  2  1
  3.708589952951e-06    7  4  3  1
 -3.004187876747e-03    7  4  4  2
 -1.335532238276e-05    7  4  4  3
 -3.547153761166e-04    7  4  5  2
 -3.005683090454e-05    7  4  5  3
  3.005833629016e-05    7  4  6  2
 -3.546972502547e-04    7  4  6  3
 -6.256045739287e-05    7  4  7  1
  6.070052908044e-03    7  4  7  4
  3.477011472252e-03    7  5  2  1
  2.568298419883e-04    7  5  3  1
 -8.912573416376e-04    7  5  4  2
 -6.904152953300e-05    7  5  4  3
 -8.018702367528e-03    7  5  5  2
 -3.369978973471e-05    7  5  5  3
  1.608681476570e-05    7  5  6  2
 -3.687419108306e-03    7  5  6  3
 -2.286312458125e-03    7  5  7  1
  7.778991060294e-04    7  5  7  4
  1.835206629581e-02    7  5  7  5
 -2.568315346281e-04    7  6  2  1
  3.476986158339e-03    7  6  3  1
  6.904373504018e-05    7  6  4  2
 -8.912293398027e-04    7  6  4  3
 -1.607477622128e-05    7  6  5  2
  3.687364631237e-03    7  6  5  3
 -8.018627231304e-03    7  6  6  2
 -3.369025978078e-05    7  6  6  3
  1.530055275941e-04    7  6  7  1
 -5.976940866311e-05    7  6  7  4
 -1.796218085471e-08    7  6  7  5
  1.835183814117e-02    7  6  7  6
  5.189289145985e-01    7  7  1  1
  5.089942900429e-01    7  7  2  2
  1.350484506176e-04    7  7  3  2
  4.777264789271e-01    7  7  3  3
  2.896137749595e-02    7  7  4  1
  2.972461780789e-01    7  7  4  4
  4.731319196256e-03    7  7  5  1
  5.233126258664e-03    7  7  5  4
  5.277096005008e-01    7  7  5  5
 -3.079269816889e-04    7  7  6  1
 -3.522021418667e-04    7  7  6  4
 -6.930736761435e-09    7  7  6  5
  5.277094667049e-01    7  7  6  6
  2.960914488254e-02    7  7  7  2
  7.691655939528e-05    7  7  7  3
  5.621772792097e-01    7  7  7  7
  2.550457002534e-05    8  1  2  1
 -9.052281851857e-03    8  1  3  1
 -1.715554285628e-06    8  1  4  2
  3.813439829404e-04    8  1  4  3
 -1.341215251682e-04    8  1  5  2
  1.908988756930e-03    8  1  5  3
 -1.908992388108e-03    8  1  6  2
 -1.341210511721e-04    8  1  6  3
  1.055607618278e-06    8  1  7  4
  1.530027376969e-04    8  1  7  5
  2.286282869523e-03    8  1  7  6
  1.306636372855e-02    8  1  8  1
  4.255915035125e-04    8  2  1  1
  6.456603591662e-04    8  2  2  2
 -1.155771008461e-02    8  2  3  2
  5.661036630409e-04    8  2  3  3
 -5.961845328053e-05    8  2  4  1
 -1.710632858024e-04    8  2  4  4
  1.286918580102e-04    8  2  5  1
  1.782970495983e-04    8  2  5  4
 -4.115665055204e-04    8  2  5  5
  1.828623141503e-03    8  2  6  1
  2.476200991146e-03    8  2  6  4
 -9.947677275889e-09    8  2  6  5
 -4.115630349914e-04    8  2  6  6
  5.467169774865e-04    8  2  7  2
 -1.213805068092e-02    8  2  7  3
  6.989388256774e-05    8  2  7  7
  1.214247566535e-02    8  2  8  2
 -1.169701620983e-01    8  3  1  1
 -1.468548472067e-01    8  3  2  2
  3.977995445862e-05    8  3  3  2
 -1.699730324042e-01    8  3  3  3
  1.393909528992e-02    8  3  4  1
  3.830466730637e-02    8  3  4  4
 -1.828663034907e-03    8  3  5  1
 -2.476221412017e-03    8  3  5  4
  9.506850388443e-02    8  3  5  5
  1.286952089939e-04    8  3  6  1
  1.782987640216e-04    8  3  6  4
 -1.824753373908e-09    8  3  6  5
  9.506846835787e-02    8  3  6  6
 -1.246123426288e-01    8  3  7  2
 -5.467169774866e-04    8  3  7  3
 -2.642908805374e-02    8  3  7  7
 -5.467135115169e-04    8  3  8  2
  1.488957311003e-01    8  3  8  3
  3.708589953062e-06    8  4  2  1
 -8.865196963550e-04    8  4  3  1
 -1.335532238289e-05    8  4  4  2
  3.004187876747e-03    8  4  4  3
  3.005683090452e-05    8  4  5  2
 -3.547153761165e-04    8  4  5  3
  3.546972502547e-04    8  4  6  2
  3.005833628990e-05    8  4  6  3
 -1.055607618354e-06    8  4  7  1
 -5.976397289442e-05    8  4  7  5
 -7.778347293227e-04    8  4  7  6
 -6.256045739285e-05    8  4  8  1
  6.070052908044e-03    8  4  8  4
 -2.568298419883e-04    8  5  2  1
  3.477011472253e-03    8  5  3  1
  6.904152953315e-05    8  5  4  2
 -8.912573416376e-04    8  5  4  3
 -3.369978973462e-05    8  5  5  2
  8.018702367528e-03    8  5  5  3
 -3.687419108306e-03    8  5  6  2
 -1.608681476568e-05    8  5  6  3
  1.530027376969e-04    8  5  7  1
 -5.976397289466e-05    8  5  7  4
  8.252112220717e-03    8  5  7  6
  2.286312458125e-03    8  5  8  1
 -7.778991060294e-04    8  5  8  4
  1.835206629581e-02    8  5  8  5
 -3.476986158339e-03    8  6  2  1
 -2.568315346282e-04    8  6  3  1
  8.912293398027e-04    8  6  4  2
  6.904373503999e-05    8  6  4  3
  3.687364631237e-03    8  6  5  2
  1.607477622123e-05    8  6  5  3
 -3.369025978066e-05    8  6  6  2
  8.018627231304e-03    8  6  6  3
  2.286282869523e-03    8  6  7  1
 -7.778347293227e-04    8  6  7  4
 -8.252112220717e-03    8  6  7  5
 -1.530055275942e-04    8  6  8  1
  5.976940866275e-05    8  6  8  4
 -1.796218088044e-08    8  6  8  5
  1.835183814117e-02    8  6  8  6
  1.350528606541e-04    8  7  2  2
 -1.563224052410e-02    8  7  3  2
 -1.350528606531e-04    8  7  3  3
 -3.079219833371e-04    8  7  5  1
 -3.521850205724e-04    8  7  5  4
 -4.731263796357e-03    8  7  6  1
 -5.232936448451e-03    8  7  6  4
  3.517841133193e-06    8  7  7  2
 -1.588770862751e-03    8  7  7  3
  1.232948477140e-08    8  7  7  7
  1.588770862751e-03    8  7  8  2
  3.517841130910e-06    8  7  8  3
  1.890062405874e-02    8  7  8  7
  5.189289145985e-01    8  8  1  1
  4.777264789271e-01    8  8  2  2
 -1.350484506173e-04    8  8  3  2
  5.089942900429e-01    8  8  3  3
  2.896137749595e-02    8  8  4  1
  2.972461780789e-01    8  8  4  4
 -4.731319196256e-03    8  8  5  1
 -5.233126258662e-03    8  8  5  4
  5.277096005008e-01    8  8  5  5
  3.079269816898e-04    8  8  6  1
  3.522021418612e-04    8  8  6  4
 -6.930736907735e-09    8  8  6  5
  5.277094667049e-01    8  8  6  6
  2.642908805374e-02    8  8  7  2
  6.989388256627e-05    8  8  7  3
  5.243722981746e-01    8  8  7  7
  7.691655939657e-05    8  8  8  2
 -2.960914488254e-02    8  8  8  3
 -1.232948645875e-08    8  8  8  7
  5.621772792097e-01    8  8  8  8
  1.417896564855e-01    9  1  1  1
  1.570296001539e-01    9  1  2  2
  1.570296001539e-01    9  1  3  3
 -1.942343227038e-02    9  1  4  1
 -5.425989409372e-02    9  1  4  4
 -1.345991250058e-01    9  1  5  5
 -8.789323981493e-10    9  1  6  5
 -1.345991182035e-01    9  1  6  6
  1.406681888615e-01    9  1  7  2
  5.573568546790e-04    9  1  7  3
  4.295470369416e-03    9  1  7  7
  5.573568546786e-04    9  1  8  2
 -1.406681888615e-01    9  1  8  3
  4.295470369416e-03    9  1  8  8
  1.911269854253e-01    9  1  9  1
  1.459729311728e-02    9  2  2  1
 -7.750322105761e-06    9  2  3  1
 -5.669835521363e-04    9  2  4  2
  1.639967445433e-06    9  2  4  3
 -1.120436079966e-03    9  2  5  2
 -9.186298840923e-05    9  2  5  3
  9.186298915220e-05    9  2  6  2
 -1.120437276870e-03    9  2  6  3
  9.831693458454e-03    9  2  7  1
  5.935096355508e-04    9  2  7  4
 -8.136440095909e-04    9  2  7  5
  5.154881897840e-05    9  2  7  6
  2.969362567597e-05    9  2  8  1
  4.234905386185e-06    9  2  8  4
  5.154883344713e-05    9  2  8  5
  8.136396563288e-04    9  2  8  6
  1.582445016205e-02    9  2  9  2
  7.750322105626e-06    9  3  2  1
  1.459729311728e-02    9  3  3  1
 -1.639967445417e-06    9  3  4  2
 -5.669835521363e-04    9  3  4  3
 -9.186298840920e-05    9  3  5  2
  1.120436079966e-03    9  3  5  3
 -1.120437276870e-03    9  3  6  2
 -9.186298915237e-05    9  3  6  3
  2.969362567584e-05    9  3  7  1
  4.234905386174e-06    9  3  7  4
 -5.154883344713e-05    9  3  7  5
 -8.136396563288e-04    9  3  7  6
 -9.831693458454e-03    9  3  8  1
 -5.935096355508e-04    9  3  8  4
 -8.136440095907e-04    9  3  8  5
  5.154881897835e-05    9  3  8  6
  1.582445016205e-02    9  3  9  3
 -5.458907087854e-02    9  4  1  1
 -4.056708955620e-02    9  4  2  2
 -4.056708955620e-02    9  4  3  3
 -1.203364429775e-02    9  4  4  1
 -1.541869488235e-02    9  4  4  4
 -7.734425336127e-02    9  4  5  5
 -5.772023624714e-10    9  4  6  5
 -7.734425197763e-02    9  4  6  6
  9.988909511827e-03    9  4  7  2
  4.397809175275e-05    9  4  7  3
 -6.645989986581e-02    9  4  7  7
  4.397809175254e-05    9  4  8  2
 -9.988909511827e-03    9  4  8  3
 -6.645989986581e-02    9  4  8  8
  1.747791832056e-02    9  4  9  1
  2.442812949206e-02    9  4  9  4
 -1.950961885408e-03    9  5  2  2
 -1.487353480488e-04    9  5  3  2
  1.950961885406e-03    9  5  3  3
 -1.340999086202e-02    9  5  5  1
 -6.805467181713e-03    9  5  5  4
 -7.489881564641e-09    9  5  6  1
  1.295142565820e-08    9  5  6  4
  2.896637407265e-03    9  5  7  2
  2.024444972065e-04    9  5  7  3
 -7.094257977642e-03    9  5  7  7
 -2.024444972065e-04    9  5  8  2
  2.896637407266e-03    9  5  8  3
  4.666658104536e-04    9  5  8  7
  7.094257977642e-03    9  5  8  8
  2.080855946792e-02    9  5  9  5
  1.487355690843e-04    9  6  2  2
 -1.950963544433e-03    9  6  3  2
 -1.487355690854e-04    9  6  3  3
  5.839707613951e-09    9  6  5  1
 -1.509244920894e-08    9  6  5  4
 -1.341000463818e-02    9  6  6  1
 -6.805491729798e-03    9  6  6  4
 -2.024466423807e-04    9  6  7  2
  2.896619041977e-03    9  6  7  3
  4.666774518265e-04    9  6  7  7
 -2.896619041977e-03    9  6  8  2
 -2.024466423811e-04    9  6  8  3
  7.094144925439e-03    9  6  8  7
 -4.666774518285e-04    9  6  8  8
  2.534262966611e-09    9  6  9  5
  2.080861081321e-02    9  6  9  6
  1.575493004282e-02    9  7  2  1
  6.655617487555e-05    9  7  3  1
 -2.267133559172e-04    9  7  4  2
 -1.642072109915e-06    9  7  4  3
 -1.495191552533e-03    9  7  5  2
 -1.068832512301e-04    9  7  5  3
  1.068836196807e-04    9  7  6  2
 -1.495182803559e-03    9  7  6  3
  1.978492545362e-03    9  7  7  1
 -7.718041202286e-04    9  7  7  4
  4.474377282537e-03    9  7  7  5
 -2.938257537347e-04    9  7  7  6
 -9.617304286494e-08    9  7  8  1
  2.526929309841e-07    9  7  8  4
 -2.938250547094e-04    9  7  8  5
 -4.474362695177e-03    9  7  8  6
  5.158375617034e-03    9  7  9  2
  1.984508722326e-05    9  7  9  3
  1.705140692130e-02    9  7  9  7
  6.655617487565e-05    9  8  2  1
 -1.575493004282e-02    9  8  3  1
 -1.642072109999e-06    9  8  4  2
  2.267133559172e-04    9  8  4  3
  1.068832512302e-04    9  8  5  2
 -1.495191552533e-03    9  8  5  3
  1.495182803559e-03    9  8  6  2
  1.068836196806e-04    9  8  6  3
  9.617304307223e-08    9  8  7  1
 -2.526929307960e-07    9  8  7  4
 -2.938250547094e-04    9  8  7  5
 -4.474362695177e-03    9  8  7  6
  1.978492545362e-03    9  8  8  1
 -7.718041202287e-04    9  8  8  4
 -4.474377282537e-03    9  8  8  5
  2.938257537347e-04    9  8  8  6
  1.984508722348e-05    9  8  9  2
 -5.158375617034e-03    9  8  9  3
  1.705140692130e-02    9  8  9  8
  5.686408339810e-01    9  9  1  1
  4.907280387462e-01    9  9  2  2
  4.907280387462e-01    9  9  3  3
  3.491424501936e-02    9  9  4  1
  3.115340354286e-01    9  9  4  4
  5.590283359811e-01    9  9  5  5
  1.696812327862e-09    9  9  6  5
  5.590283118723e-01    9  9  6  6
  1.929597297808e-02    9  9  7  2
  3.268099159686e-05    9  9  7  3
  5.592188872228e-01    9  9  7  7
  3.268099159834e-05    9  9  8  2
 -1.929597297808e-02    9  9  8  3
  5.592188872228e-01    9  9  8  8
 -4.879105569633e-04    9  9  9  1
 -7.776052304801e-02    9  9  9  4
  6.341017852472e-01    9  9  9  9
 -4.474001093255e+00    1  1  0  0
 -4.290749605403e+00    2  2  0  0
 -4.290749605403e+00    3  3  0  0
 -1.529302946742e-01    4  1  0  0
 -2.369123868595e+00    4  4  0  0
 -3.690789257753e+00    5  5  0  0
 -1.364234989848e-09    6  5  0  0
 -3.690789042112e+00    6  6  0  0
 -4.043277212802e-01    7  2  0  0
 -9.225169010026e-04    7  3  0  0
 -3.795018429952e+00    7  7  0  0
 -9.225169010163e-04    8  2  0  0
  4.043277212802e-01    8  3  0  0
 -3.795018429952e+00    8  8  0  0
 -3.853715945106e-01    9  1  0  0
  3.830838779201e-01    9  4  0  0
 -3.848916775623e+00    9  9  0  0
    -66.521125567700   0  0  0  0
