#INFO: **** input file is /projects/bamu3429/BENCHMARK/fresh_atoms/MRPT/vqz/monoxides/VO/mrpt.py ****
import json
from pyscf import gto,scf,mcscf, fci, lo, ci, cc
from pyscf.scf import ROHF, UHF,ROKS
import numpy as np
import pandas as pd

# THIS IS WERE IT STARTS ====================================

df=json.load(open("../../../trail.json"))

spins={'ScO':1, 'TiO':2, 'VO':3, 'CrO':4, 'MnO':5, 'FeO':4, 'CuO':1}

nd={'Sc':(1,0), 'Ti':(2,0), 'V':(3,0), 'Cr':(5,0), 'Mn':(5,0), 'Fe':(5,1), 'Cu':(5,4)}

cas={'Sc':3, 'Ti':4, 'V':5, 'Cr':6, 'Mn':7, 'Fe':8, 'Cu':11}

re={'ScO':1.668, 'TiO':1.623, 'VO':1.591, 'CrO':1.621, 'MnO':1.648, 'FeO':1.616, 'CuO':1.725}

datacsv={}
for nm in ['basis','charge','method','molecule','pseudopotential',
           'totalenergy','totalenergy-stocherr','totalenergy-syserr']:
  datacsv[nm]=[]

basis='vqz'
element='V'

mol=gto.Mole()
mol.ecp={}
mol.basis={}
for el in [element,'O']:
  mol.ecp[el]=gto.basis.parse_ecp(df[el]['ecp'])
  mol.basis[el]=gto.basis.parse(df[el][basis])
mol.charge=0
mol.spin=spins[element+'O']
mol.build(atom="%s 0. 0. 0.; O 0. 0. %g"%(element,re[element+'O']),verbose=4)

m=ROHF(mol)
m.level_shift=1000.0
dm=m.from_chk("../../../../HF/monoxides/"+element+basis+"0.chk")
hf=m.kernel(dm)
m.analyze()

from pyscf.shciscf import shci
mc = shci.SHCISCF(m, 9, 4+cas[element])
#mc.fcisolver.conv_tol = 1e-14
mc.fcisolver.mpiprefix="srun -n20"
mc.fcisolver.num_thrds=12
mc.verbose = 4
cas=mc.kernel()[0]
 
from pyscf.icmpspt import icmpspt
pt=icmpspt.icmpspt(mc,rdmM=500, PTM=1000,\
                          pttype="MRLCC",\
                          third_order=True,\
                          fully_ic=True,\
                          do_dm4=True)

datacsv['basis'].append(basis)
datacsv['charge'].append(0)
datacsv['method'].append('MRPT')
datacsv['molecule'].append(element)
datacsv['pseudopotential'].append('trail')
datacsv['totalenergy'].append(cas+pt)
datacsv['totalenergy-stocherr'].append(0.0)
datacsv['totalenergy-syserr'].append(0.0)
pd.DataFrame(datacsv).to_csv(element+".csv",index=False)

#INFO: ******************** input file end ********************


System: ('Linux', 'bnode0302.rc.int.colorado.edu', '3.10.0-514.41.1.el7.x86_64', '#1 SMP Wed Jan 17 10:26:16 EST 2018', 'x86_64', 'x86_64')  Threads 28
Python 2.7.11 (default, Mar 22 2016, 01:42:54) 
[GCC Intel(R) C++ gcc 4.8 mode]
numpy 1.11.1  scipy 0.17.1
Date: Thu Apr 19 12:20:58 2018
PySCF version 1.4.6
PySCF path  /projects/bamu3429/softwares/pyscf_uptodate/pyscf
GIT ORIG_HEAD f3591ef22170896a4cdc2aadaa6f5da388ffcadb
GIT HEAD      ref: refs/heads/master
GIT master branch  1847583fb1d2472321833d3c71c8b7008e5fabf5

[INPUT] VERBOSE 4
[INPUT] num atoms = 2
[INPUT] num electrons = 19
[INPUT] charge = 0
[INPUT] spin (= nelec alpha-beta = 2S) = 3
[INPUT] symmetry False subgroup None
[INPUT]  1 V      0.000000000000   0.000000000000   0.000000000000 AA    0.000000000000   0.000000000000   0.000000000000 Bohr
[INPUT]  2 O      0.000000000000   0.000000000000   1.591000000000 AA    0.000000000000   0.000000000000   3.006554264183 Bohr
[INPUT] ---------------- BASIS SET ---------------- 
[INPUT] l, kappa, [nprim/nctr], expnt,             c_1 c_2 ...
[INPUT] O
[INPUT] 0    0    [10   /1   ]  57.663349         -0.002794
                                35.726816         0.023976
                                22.453757         -0.115974
                                14.732301         0.288033
                                9.739917          -0.274786
                                5.042008          -0.083789
                                2.157818          0.063778
                                1.002916          0.410182
                                0.421839          0.504044
                                0.173041          0.172152
[INPUT] 0    0    [1    /1   ]  1.70747              1
[INPUT] 0    0    [1    /1   ]  0.617491             1
[INPUT] 0    0    [1    /1   ]  0.223309             1
[INPUT] 0    0    [1    /1   ]  0.084592             1
[INPUT] 1    0    [10   /1   ]  52.47406          -0.000522
                                32.138432         0.004857
                                19.458579         -0.027749
                                11.839344         0.074258
                                7.91003           0.014369
                                3.670858          0.153479
                                1.53966           0.283685
                                0.647119          0.358201
                                0.267853          0.29559
                                0.107198          0.104889
[INPUT] 1    0    [1    /1   ]  1.345435             1
[INPUT] 1    0    [1    /1   ]  0.458358             1
[INPUT] 1    0    [1    /1   ]  0.156151             1
[INPUT] 1    0    [1    /1   ]  0.045837             1
[INPUT] 2    0    [1    /1   ]  3.661538             1
[INPUT] 2    0    [1    /1   ]  1.279275             1
[INPUT] 2    0    [1    /1   ]  0.446952             1
[INPUT] 2    0    [1    /1   ]  0.148191             1
[INPUT] 3    0    [1    /1   ]  2.598839             1
[INPUT] 3    0    [1    /1   ]  0.849032             1
[INPUT] 3    0    [1    /1   ]  0.310222             1
[INPUT] 4    0    [1    /1   ]  1.838653             1
[INPUT] 4    0    [1    /1   ]  0.706784             1
[INPUT] V
[INPUT] 0    0    [12   /1   ]  33.51168105       0.006845
                                15.38532624       -0.214557
                                9.96227367        1.392425
                                8.05943355        -1.485929
                                3.6960334         -0.026725
                                1.49220279        0.457681
                                0.84622253        0.506886
                                0.43855031        0.249453
                                0.2102388         0.007109
                                0.1022422         0.007055
                                0.04832462        -0.000443
                                0.02406855        0.001278
[INPUT] 0    0    [12   /1   ]  33.51168105       -0.001211
                                15.38532624       0.04697
                                9.96227367        -0.329808
                                8.05943355        0.363635
                                3.6960334         0.005985
                                1.49220279        -0.140857
                                0.84622253        -0.203846
                                0.43855031        -0.200776
                                0.2102388         0.022081
                                0.1022422         0.429765
                                0.04832462        0.534383
                                0.02406855        0.187984
[INPUT] 0    0    [12   /1   ]  33.51168105       -0.00739
                                15.38532624       0.238491
                                9.96227367        -1.724091
                                8.05943355        1.999647
                                3.6960334         -0.238256
                                1.49220279        -1.556963
                                0.84622253        0.309646
                                0.43855031        0.556155
                                0.2102388         0.87521
                                0.1022422         0.066563
                                0.04832462        -0.498018
                                0.02406855        -0.328938
[INPUT] 0    0    [12   /1   ]  33.51168105       -0.014812
                                15.38532624       0.388493
                                9.96227367        -2.78127
                                8.05943355        3.330758
                                3.6960334         -0.94462
                                1.49220279        -2.423512
                                0.84622253        2.390354
                                0.43855031        1.173321
                                0.2102388         -1.126324
                                0.1022422         -1.21378
                                0.04832462        0.578957
                                0.02406855        0.647397
[INPUT] 0    0    [12   /1   ]  33.51168105       0.02431
                                15.38532624       -0.654708
                                9.96227367        5.220233
                                8.05943355        -6.798776
                                3.6960334         4.217259
                                1.49220279        -0.410754
                                0.84622253        -4.499651
                                0.43855031        4.05621
                                0.2102388         0.422256
                                0.1022422         -1.849392
                                0.04832462        -0.198025
                                0.02406855        0.951472
[INPUT] 0    0    [1    /1   ]  0.02406855           1
[INPUT] 0    0    [1    /1   ]  0.01198757           1
[INPUT] 1    0    [12   /1   ]  49.83779697       0.000413
                                25.60370921       -0.003442
                                10.40982442       0.097153
                                7.71483683        -0.206888
                                4.49868206        0.083281
                                2.48212838        0.186621
                                1.4387019         0.395144
                                0.72090362        0.377883
                                0.3443302         0.134629
                                0.13162828        0.011074
                                0.05284968        -0.000426
                                0.02121951        0.000256
[INPUT] 1    0    [12   /1   ]  49.83779697       -2.9e-05
                                25.60370921       0.000502
                                10.40982442       -0.020934
                                7.71483683        0.047431
                                4.49868206        -0.020701
                                2.48212838        -0.057583
                                1.4387019         -0.106451
                                0.72090362        -0.140229
                                0.3443302         0.043257
                                0.13162828        0.438687
                                0.05284968        0.536785
                                0.02121951        0.12546
[INPUT] 1    0    [12   /1   ]  49.83779697       0.000125
                                25.60370921       -0.002517
                                10.40982442       0.129205
                                7.71483683        -0.331116
                                4.49868206        0.199683
                                2.48212838        0.736477
                                1.4387019         0.263863
                                0.72090362        -0.926674
                                0.3443302         -0.457633
                                0.13162828        0.732362
                                0.05284968        0.294964
                                0.02121951        -0.006728
[INPUT] 1    0    [12   /1   ]  49.83779697       -0.000421
                                25.60370921       -0.000896
                                10.40982442       0.223292
                                7.71483683        -0.706699
                                4.49868206        0.969782
                                2.48212838        1.23461
                                1.4387019         -1.707054
                                0.72090362        -0.818959
                                0.3443302         1.677915
                                0.13162828        -0.284846
                                0.05284968        -0.553275
                                0.02121951        0.038662
[INPUT] 1    0    [12   /1   ]  49.83779697       -0.005409
                                25.60370921       0.02436
                                10.40982442       0.004817
                                7.71483683        -0.691264
                                4.49868206        2.714011
                                2.48212838        -1.342486
                                1.4387019         -2.368929
                                0.72090362        3.305492
                                0.3443302         -1.334113
                                0.13162828        -0.670775
                                0.05284968        0.961376
                                0.02121951        -0.095792
[INPUT] 1    0    [1    /1   ]  0.02121951           1
[INPUT] 1    0    [1    /1   ]  0.00851977           1
[INPUT] 2    0    [10   /1   ]  34.27504048       0.000678
                                16.12418185       -0.017858
                                9.59474528        0.107867
                                3.8690861         0.173949
                                1.82728072        0.26883
                                0.85799457        0.321303
                                0.38035078        0.300128
                                0.15533087        0.170792
                                0.06318167        0.035148
                                0.03734397        0.003549
[INPUT] 2    0    [10   /1   ]  34.27504048       0.000582
                                16.12418185       0.010626
                                9.59474528        -0.094081
                                3.8690861         -0.229152
                                1.82728072        -0.398003
                                0.85799457        -0.07706
                                0.38035078        0.316419
                                0.15533087        0.47231
                                0.06318167        0.193995
                                0.03734397        0.015813
[INPUT] 2    0    [10   /1   ]  34.27504048       0.003942
                                16.12418185       -0.00929
                                9.59474528        -0.056573
                                3.8690861         -0.437279
                                1.82728072        -0.366316
                                0.85799457        0.692165
                                0.38035078        0.436052
                                0.15533087        -0.45661
                                0.06318167        -0.393393
                                0.03734397        -0.018597
[INPUT] 2    0    [10   /1   ]  34.27504048       -0.001109
                                16.12418185       0.03439
                                9.59474528        -0.270394
                                3.8690861         -0.936233
                                1.82728072        1.031092
                                0.85799457        0.469932
                                0.38035078        -0.990908
                                0.15533087        0.147863
                                0.06318167        0.422386
                                0.03734397        0.020135
[INPUT] 2    0    [1    /1   ]  0.03734397           1
[INPUT] 2    0    [1    /1   ]  0.02207241           1
[INPUT] 3    0    [1    /1   ]  3.23539              1
[INPUT] 3    0    [1    /1   ]  1.128879             1
[INPUT] 3    0    [1    /1   ]  0.393882             1
[INPUT] 3    0    [1    /1   ]  0.13743105           1
[INPUT] 4    0    [1    /1   ]  3.232259             1
[INPUT] 4    0    [1    /1   ]  1.154065             1
[INPUT] 4    0    [1    /1   ]  0.41205423           1
[INPUT] 5    0    [1    /1   ]  2.694878             1
[INPUT] 5    0    [1    /1   ]  0.96219527           1
nuclear repulsion = 25.9433202085229
number of shells = 48
number of NR pGTOs = 650
number of NR cGTOs = 214
basis = {'O': [[0, [57.663349, -0.002794], [35.726816, 0.023976], [22.453757, -0.115974], [14.732301, 0.288033], [9.739917, -0.274786], [5.042008, -0.083789], [2.157818, 0.063778], [1.002916, 0.410182], [0.421839, 0.504044], [0.173041, 0.172152]], [0, [1.70747, 1.0]], [0, [0.617491, 1.0]], [0, [0.223309, 1.0]], [0, [0.084592, 1.0]], [1, [52.47406, -0.000522], [32.138432, 0.004857], [19.458579, -0.027749], [11.839344, 0.074258], [7.91003, 0.014369], [3.670858, 0.153479], [1.53966, 0.283685], [0.647119, 0.358201], [0.267853, 0.29559], [0.107198, 0.104889]], [1, [1.345435, 1.0]], [1, [0.458358, 1.0]], [1, [0.156151, 1.0]], [1, [0.045837, 1.0]], [2, [3.661538, 1.0]], [2, [1.279275, 1.0]], [2, [0.446952, 1.0]], [2, [0.148191, 1.0]], [3, [2.598839, 1.0]], [3, [0.849032, 1.0]], [3, [0.310222, 1.0]], [4, [1.838653, 1.0]], [4, [0.706784, 1.0]]], 'V': [[0, [33.51168105, 0.006845], [15.38532624, -0.214557], [9.96227367, 1.392425], [8.05943355, -1.485929], [3.6960334, -0.026725], [1.49220279, 0.457681], [0.84622253, 0.506886], [0.43855031, 0.249453], [0.2102388, 0.007109], [0.1022422, 0.007055], [0.04832462, -0.000443], [0.02406855, 0.001278]], [0, [33.51168105, -0.001211], [15.38532624, 0.04697], [9.96227367, -0.329808], [8.05943355, 0.363635], [3.6960334, 0.005985], [1.49220279, -0.140857], [0.84622253, -0.203846], [0.43855031, -0.200776], [0.2102388, 0.022081], [0.1022422, 0.429765], [0.04832462, 0.534383], [0.02406855, 0.187984]], [0, [33.51168105, -0.00739], [15.38532624, 0.238491], [9.96227367, -1.724091], [8.05943355, 1.999647], [3.6960334, -0.238256], [1.49220279, -1.556963], [0.84622253, 0.309646], [0.43855031, 0.556155], [0.2102388, 0.87521], [0.1022422, 0.066563], [0.04832462, -0.498018], [0.02406855, -0.328938]], [0, [33.51168105, -0.014812], [15.38532624, 0.388493], [9.96227367, -2.78127], [8.05943355, 3.330758], [3.6960334, -0.94462], [1.49220279, -2.423512], [0.84622253, 2.390354], [0.43855031, 1.173321], [0.2102388, -1.126324], [0.1022422, -1.21378], [0.04832462, 0.578957], [0.02406855, 0.647397]], [0, [33.51168105, 0.02431], [15.38532624, -0.654708], [9.96227367, 5.220233], [8.05943355, -6.798776], [3.6960334, 4.217259], [1.49220279, -0.410754], [0.84622253, -4.499651], [0.43855031, 4.05621], [0.2102388, 0.422256], [0.1022422, -1.849392], [0.04832462, -0.198025], [0.02406855, 0.951472]], [0, [0.02406855, 1.0]], [0, [0.01198757, 1.0]], [1, [49.83779697, 0.000413], [25.60370921, -0.003442], [10.40982442, 0.097153], [7.71483683, -0.206888], [4.49868206, 0.083281], [2.48212838, 0.186621], [1.4387019, 0.395144], [0.72090362, 0.377883], [0.3443302, 0.134629], [0.13162828, 0.011074], [0.05284968, -0.000426], [0.02121951, 0.000256]], [1, [49.83779697, -2.9e-05], [25.60370921, 0.000502], [10.40982442, -0.020934], [7.71483683, 0.047431], [4.49868206, -0.020701], [2.48212838, -0.057583], [1.4387019, -0.106451], [0.72090362, -0.140229], [0.3443302, 0.043257], [0.13162828, 0.438687], [0.05284968, 0.536785], [0.02121951, 0.12546]], [1, [49.83779697, 0.000125], [25.60370921, -0.002517], [10.40982442, 0.129205], [7.71483683, -0.331116], [4.49868206, 0.199683], [2.48212838, 0.736477], [1.4387019, 0.263863], [0.72090362, -0.926674], [0.3443302, -0.457633], [0.13162828, 0.732362], [0.05284968, 0.294964], [0.02121951, -0.006728]], [1, [49.83779697, -0.000421], [25.60370921, -0.000896], [10.40982442, 0.223292], [7.71483683, -0.706699], [4.49868206, 0.969782], [2.48212838, 1.23461], [1.4387019, -1.707054], [0.72090362, -0.818959], [0.3443302, 1.677915], [0.13162828, -0.284846], [0.05284968, -0.553275], [0.02121951, 0.038662]], [1, [49.83779697, -0.005409], [25.60370921, 0.02436], [10.40982442, 0.004817], [7.71483683, -0.691264], [4.49868206, 2.714011], [2.48212838, -1.342486], [1.4387019, -2.368929], [0.72090362, 3.305492], [0.3443302, -1.334113], [0.13162828, -0.670775], [0.05284968, 0.961376], [0.02121951, -0.095792]], [1, [0.02121951, 1.0]], [1, [0.00851977, 1.0]], [2, [34.27504048, 0.000678], [16.12418185, -0.017858], [9.59474528, 0.107867], [3.8690861, 0.173949], [1.82728072, 0.26883], [0.85799457, 0.321303], [0.38035078, 0.300128], [0.15533087, 0.170792], [0.06318167, 0.035148], [0.03734397, 0.003549]], [2, [34.27504048, 0.000582], [16.12418185, 0.010626], [9.59474528, -0.094081], [3.8690861, -0.229152], [1.82728072, -0.398003], [0.85799457, -0.07706], [0.38035078, 0.316419], [0.15533087, 0.47231], [0.06318167, 0.193995], [0.03734397, 0.015813]], [2, [34.27504048, 0.003942], [16.12418185, -0.00929], [9.59474528, -0.056573], [3.8690861, -0.437279], [1.82728072, -0.366316], [0.85799457, 0.692165], [0.38035078, 0.436052], [0.15533087, -0.45661], [0.06318167, -0.393393], [0.03734397, -0.018597]], [2, [34.27504048, -0.001109], [16.12418185, 0.03439], [9.59474528, -0.270394], [3.8690861, -0.936233], [1.82728072, 1.031092], [0.85799457, 0.469932], [0.38035078, -0.990908], [0.15533087, 0.147863], [0.06318167, 0.422386], [0.03734397, 0.020135]], [2, [0.03734397, 1.0]], [2, [0.02207241, 1.0]], [3, [3.23539, 1.0]], [3, [1.128879, 1.0]], [3, [0.393882, 1.0]], [3, [0.13743105, 1.0]], [4, [3.232259, 1.0]], [4, [1.154065, 1.0]], [4, [0.41205423, 1.0]], [5, [2.694878, 1.0]], [5, [0.96219527, 1.0]]]}
ecp = {'O': [2, [[-1, [[], [[10.27717748, 6.0]], [[15.99566749, 1232.50197768], [10.46901775, -696.47008301], [14.6384801, -2654.22657081], [12.57591181, 2101.67732548]], [[7.77739102, 61.66306486]]]], [0, [[], [], [[12.39426073, -656683.37638839], [12.38126171, 657858.57667068], [8.57671033, 511.50098405], [9.89256508, -2579.54665641], [28.05641604, -57.68129584], [17.24753607, 970.30940152]], []]], [1, [[], [], [[14.78918914, -363027.24258186], [14.82014018, 361852.52314043], [22.89622221, -1300.20069256], [8.51331893, -181.96869573], [11.48609758, 2194.87589959], [27.22017524, 451.19906206]], []]]]], 'V': [10, [[-1, [[], [[8.85341849, 13.0]], [[14.12393489, 1867.96836466], [10.01469125, -417.2185296], [16.87739786, -6735.41034163], [17.42661229, 5248.9519915]], [[8.14766139, 115.09444037]]]], [0, [[], [], [[10.17161428, 8429.89768085], [6.62108601, -4738.0869454], [6.4407206, 3874.69004628], [11.26222343, -9817.80452096], [19.82459033, -286.16022228], [14.35299938, 2571.80634504]], []]], [1, [[], [], [[10.25117807, 40641.17869487], [10.49106006, -41559.00487832], [13.7869188, 3357.33248976], [16.29479305, -896.47755921], [7.79003518, -1904.45864373], [6.62830213, 382.3757783]], []]], [2, [[], [], [[8.601477, 4615.05527413], [10.66674565, -3671.60281242], [15.19026557, 4480.50015686], [8.06189603, -2591.12632756], [19.82232597, 2587.18683714], [18.22318105, -5431.92186158]], []]]]]}
CPU time:         3.60


******** <class 'pyscf.scf.rohf.ROHF'> flags ********
method = ROHF
initial guess = minao
damping factor = 0
level shift factor = 1000.0
DIIS = <class 'pyscf.scf.diis.CDIIS'>
DIIS start cycle = 1
DIIS space = 8
SCF tol = 1e-09
SCF gradient tol = None
max. SCF cycles = 50
direct_scf = True
direct_scf_tol = 1e-13
chkfile to save SCF result = /rc_scratch/bamu3429/tmplA5egD
max_memory 4000 MB (current use 126 MB)
num. doubly occ = 8  num. singly occ = 3
Set gradient conv threshold to 3.16228e-05
init E= -86.408195143109
  HOMO = 499.888186391725  LUMO = 1000.01312674459
cycle= 1 E= -86.4081951431092  delta_E= -1.85e-13  |g|= 6.79e-06  |ddm|= 4.23e-08
  HOMO = -0.111813606397743  LUMO = 0.0131267446344586
Extra cycle  E= -86.4081951431442  delta_E= -3.5e-11  |g|= 2.21e-06  |ddm|= 1.58e-05
converged SCF energy = -86.4081951431442
**** MO energy ****
                Roothaan           | alpha              | beta
MO #1   energy= -3.26497610966119  | -3.3452549379198   | -3.18469731923419  occ= 2
MO #2   energy= -2.10039031666644  | -2.12838082239349  | -2.07239981410512  occ= 2
MO #3   energy= -2.06672605278985  | -2.19691004360229  | -1.93654206197741  occ= 2
MO #4   energy= -2.06672605278984  | -2.19691004360228  | -1.9365420619774   occ= 2
MO #5   energy= -1.17513421449435  | -1.17852450601307  | -1.17174392676384  occ= 2
MO #6   energy= -0.477948501915295 | -0.488903112535779 | -0.466994109033646 occ= 2
MO #7   energy= -0.454038649681006 | -0.45891693904816  | -0.449160360313849 occ= 2
MO #8   energy= -0.454038649681003 | -0.458916939048158 | -0.449160360313847 occ= 2
MO #9   energy= -0.126273375744503 | -0.285134245893198 | 0.0325876901819044 occ= 1
MO #10  energy= -0.111813606397787 | -0.490826005025598 | 0.267198886722655  occ= 1
MO #11  energy= -0.111813606397743 | -0.490826005025556 | 0.267198886722699  occ= 1
MO #12  energy= 0.0131267446344586 | 0.00909639073630973 | 0.017157098532606  occ= 0
MO #13  energy= 0.0131267446344591 | 0.00909639073630883 | 0.0171570985326066 occ= 0
MO #14  energy= 0.0135896534342883 | 0.0112605983180335 | 0.0159187472535087 occ= 0
MO #15  energy= 0.0275313587853595 | 0.026810270781219  | 0.0282524235513197 occ= 0
MO #16  energy= 0.0412962228065665 | 0.0283506021972865 | 0.0542418434158442 occ= 0
MO #17  energy= 0.0412962228065684 | 0.0283506021972897 | 0.054241843415847  occ= 0
MO #18  energy= 0.0474062716734193 | 0.0364422934389964 | 0.0583703263281221 occ= 0
MO #19  energy= 0.0607577926175724 | 0.0602187877884365 | 0.0612967876093368 occ= 0
MO #20  energy= 0.0607577926175757 | 0.0602187877884369 | 0.0612967876093366 occ= 0
MO #21  energy= 0.066988773313507  | 0.0656656323477762 | 0.0683119142792359 occ= 0
MO #22  energy= 0.0669887733135077 | 0.0656656323477761 | 0.0683119142792349 occ= 0
MO #23  energy= 0.0758346867716531 | 0.0694723626693052 | 0.0821970751272308 occ= 0
MO #24  energy= 0.114590689731328  | 0.102346800712679  | 0.126834611398147  occ= 0
MO #25  energy= 0.117286826442923  | 0.102025313944449  | 0.1325483389414    occ= 0
MO #26  energy= 0.117286826442927  | 0.102025313944447  | 0.132548338941408  occ= 0
MO #27  energy= 0.12553444422985   | 0.11882782857843   | 0.13224096270043   occ= 0
MO #28  energy= 0.175146019404508  | 0.168495726845071  | 0.181796326660376  occ= 0
MO #29  energy= 0.175146019404509  | 0.168495726845068  | 0.181796326660376  occ= 0
MO #30  energy= 0.186726634852336  | 0.181436874585409  | 0.192016385583922  occ= 0
MO #31  energy= 0.193864126733852  | 0.183404338288308  | 0.204323915179391  occ= 0
MO #32  energy= 0.193864126733876  | 0.183404338288344  | 0.204323915179405  occ= 0
MO #33  energy= 0.219562694197408  | 0.217885802297656  | 0.221239586097159  occ= 0
MO #34  energy= 0.219562694197412  | 0.217885802297695  | 0.221239586097122  occ= 0
MO #35  energy= 0.223528578839481  | 0.20300245267854   | 0.244054705000418  occ= 0
MO #36  energy= 0.223528578839531  | 0.203002452678542  | 0.24405470500052   occ= 0
MO #37  energy= 0.237636410070048  | 0.231048936585226  | 0.244223903200369  occ= 0
MO #38  energy= 0.333179928238804  | 0.324964442341904  | 0.34139541385029   occ= 0
MO #39  energy= 0.499177943458527  | 0.483946883893232  | 0.514409019773858  occ= 0
MO #40  energy= 0.499961519578751  | 0.492936956034263  | 0.506986082263579  occ= 0
MO #41  energy= 0.499961519578752  | 0.492936956034264  | 0.506986082263579  occ= 0
MO #42  energy= 0.510439457150526  | 0.498858030356097  | 0.522020883944953  occ= 0
MO #43  energy= 0.510439457150527  | 0.498858030356099  | 0.522020883944955  occ= 0
MO #44  energy= 0.538206541446647  | 0.524649179487077  | 0.551763903406216  occ= 0
MO #45  energy= 0.538206541446694  | 0.5246491794871    | 0.551763903406284  occ= 0
MO #46  energy= 0.549162751545204  | 0.534970826245213  | 0.563354676845179  occ= 0
MO #47  energy= 0.549162751545761  | 0.534970826245868  | 0.563354676845641  occ= 0
MO #48  energy= 0.558030731485233  | 0.543872231254472  | 0.572189187014817  occ= 0
MO #49  energy= 0.569061056545349  | 0.540771312690758  | 0.597350748692733  occ= 0
MO #50  energy= 0.569061056545358  | 0.540771312690761  | 0.597350748692742  occ= 0
MO #51  energy= 0.623092579240562  | 0.606062274072556  | 0.640122876278006  occ= 0
MO #52  energy= 0.668820119167969  | 0.665358542073439  | 0.672281697291769  occ= 0
MO #53  energy= 0.720338798996089  | 0.705906260092003  | 0.734771311184772  occ= 0
MO #54  energy= 0.720338798996113  | 0.705906260092022  | 0.734771311184802  occ= 0
MO #55  energy= 0.729460120718066  | 0.722283454289249  | 0.73663678714688   occ= 0
MO #56  energy= 0.729460120718299  | 0.722283454289449  | 0.736636787147151  occ= 0
MO #57  energy= 0.755249755590992  | 0.750448843355277  | 0.760050667826703  occ= 0
MO #58  energy= 0.755249755590993  | 0.750448843355282  | 0.760050667826701  occ= 0
MO #59  energy= 0.943945799972555  | 0.940947887311034  | 0.946943713202755  occ= 0
MO #60  energy= 1.188920795594     | 1.18045966076154   | 1.19738193092076   occ= 0
MO #61  energy= 1.31153599671744   | 1.29439971309914   | 1.32867228033575   occ= 0
MO #62  energy= 1.31153599671775   | 1.29439971309948   | 1.32867228033601   occ= 0
MO #63  energy= 1.37018711000324   | 1.36757582958802   | 1.37279839041846   occ= 0
MO #64  energy= 1.37018711000324   | 1.36757582958802   | 1.37279839041846   occ= 0
MO #65  energy= 1.3974032996221    | 1.38592925421742   | 1.40887734437254   occ= 0
MO #66  energy= 1.39740329962211   | 1.38592925421742   | 1.40887734437254   occ= 0
MO #67  energy= 1.49150429227221   | 1.48346685917896   | 1.49954172536546   occ= 0
MO #68  energy= 1.49150429227222   | 1.48346685917896   | 1.49954172536547   occ= 0
MO #69  energy= 1.51428273216038   | 1.50825321402876   | 1.52031225067094   occ= 0
MO #70  energy= 1.52879837522137   | 1.48617747464774   | 1.57141927579499   occ= 0
MO #71  energy= 1.52879837522137   | 1.48617747464774   | 1.57141927579499   occ= 0
MO #72  energy= 1.64720279173508   | 1.64672485235926   | 1.64768073101553   occ= 0
MO #73  energy= 1.64720279173508   | 1.64672485235926   | 1.64768073101553   occ= 0
MO #74  energy= 1.65627129815147   | 1.64579872005829   | 1.66674387776806   occ= 0
MO #75  energy= 1.71220766372319   | 1.69822026261217   | 1.7261950648342    occ= 0
MO #76  energy= 1.71220766372338   | 1.69822026261239   | 1.72619506483437   occ= 0
MO #77  energy= 1.74292618437723   | 1.7295027062791    | 1.75634966077887   occ= 0
MO #78  energy= 1.74292618437724   | 1.7295027062791    | 1.75634966077888   occ= 0
MO #79  energy= 1.74971022372818   | 1.74088927049681   | 1.75853117888372   occ= 0
MO #80  energy= 1.85007644725241   | 1.83810589109535   | 1.86204700340945   occ= 0
MO #81  energy= 1.8500764472526    | 1.83810589109554   | 1.86204700340966   occ= 0
MO #82  energy= 1.9054907162556    | 1.88664700468419   | 1.92433442782701   occ= 0
MO #83  energy= 1.9054907162556    | 1.88664700468419   | 1.92433442782701   occ= 0
MO #84  energy= 1.93493672081647   | 1.92704881145784   | 1.94282462701815   occ= 0
MO #85  energy= 2.0424631531513    | 2.03071153728001   | 2.05421476902259   occ= 0
MO #86  energy= 2.0424631531513    | 2.03071153728001   | 2.05421476902259   occ= 0
MO #87  energy= 2.24556250338854   | 2.24149833792784   | 2.24962666885949   occ= 0
MO #88  energy= 2.25032568034485   | 2.24340499144099   | 2.2572463692487    occ= 0
MO #89  energy= 2.25032568034485   | 2.24340499144099   | 2.2572463692487    occ= 0
MO #90  energy= 2.32500371402917   | 2.29821922931303   | 2.35178819669318   occ= 0
MO #91  energy= 2.32500371402918   | 2.29821922931304   | 2.35178819669318   occ= 0
MO #92  energy= 2.50188597563067   | 2.49864272161085   | 2.50512922965049   occ= 0
MO #93  energy= 2.50188597563068   | 2.49864272161086   | 2.5051292296505    occ= 0
MO #94  energy= 2.5029126605756    | 2.47876633031387   | 2.5270589875378    occ= 0
MO #95  energy= 2.57819425967978   | 2.53669961874431   | 2.61968889053719   occ= 0
MO #96  energy= 2.57819425967981   | 2.53669961874434   | 2.61968889053723   occ= 0
MO #97  energy= 2.9551573884356    | 2.94417195452063   | 2.9661428219469    occ= 0
MO #98  energy= 3.30541469504349   | 3.29561151183265   | 3.31521787825432   occ= 0
MO #99  energy= 3.3054146950435    | 3.29561151183265   | 3.31521787825432   occ= 0
MO #100 energy= 3.69159224013108   | 3.69101638171016   | 3.69216809855201   occ= 0
MO #101 energy= 3.69159224013109   | 3.69101638171017   | 3.69216809855202   occ= 0
MO #102 energy= 3.82676000505704   | 3.81988045958389   | 3.83363955053019   occ= 0
MO #103 energy= 3.82676000505704   | 3.81988045958389   | 3.83363955053019   occ= 0
MO #104 energy= 3.87972238740574   | 3.86933183275971   | 3.89011294186509   occ= 0
MO #105 energy= 3.89310956636366   | 3.87882781867187   | 3.90739131405545   occ= 0
MO #106 energy= 3.89310956636367   | 3.87882781867187   | 3.90739131405545   occ= 0
MO #107 energy= 4.00691201531719   | 3.99538726649163   | 4.01843676387162   occ= 0
MO #108 energy= 4.0069120153172    | 3.99538726649163   | 4.01843676387162   occ= 0
MO #109 energy= 4.01961579039181   | 4.01042481559329   | 4.02880676508893   occ= 0
MO #110 energy= 4.04739425011271   | 3.97673661285933   | 4.11805188736609   occ= 0
MO #111 energy= 4.04739425011272   | 3.97673661285933   | 4.1180518873661    occ= 0
MO #112 energy= 4.10111948505947   | 4.10050954498157   | 4.10172942513738   occ= 0
MO #113 energy= 4.10111948505947   | 4.10050954498157   | 4.10172942513738   occ= 0
MO #114 energy= 4.14807768952021   | 4.12801396085279   | 4.1681414179972    occ= 0
MO #115 energy= 4.14807768952022   | 4.1280139608528    | 4.16814141799721   occ= 0
MO #116 energy= 4.23401818551786   | 4.23188319499962   | 4.23615317602542   occ= 0
MO #117 energy= 4.26011152597459   | 4.250205069713     | 4.27001798223616   occ= 0
MO #118 energy= 4.2601115259746    | 4.25020506971303   | 4.27001798223618   occ= 0
MO #119 energy= 4.2785168407842    | 4.27379223655462   | 4.28324144509589   occ= 0
MO #120 energy= 4.27851684078421   | 4.27379223655463   | 4.28324144509589   occ= 0
MO #121 energy= 4.41140521257478   | 4.40830982030209   | 4.41450060484746   occ= 0
MO #122 energy= 4.41140521257478   | 4.40830982030209   | 4.41450060484747   occ= 0
MO #123 energy= 4.54691096134572   | 4.54212262913281   | 4.55169929364386   occ= 0
MO #124 energy= 4.63995458499511   | 4.63681603797151   | 4.64309313209873   occ= 0
MO #125 energy= 4.63995458499511   | 4.63681603797152   | 4.64309313209874   occ= 0
MO #126 energy= 4.92072674969256   | 4.9008816155486    | 4.94057188383651   occ= 0
MO #127 energy= 4.92072674969271   | 4.90088161554876   | 4.94057188383664   occ= 0
MO #128 energy= 4.95474989268233   | 4.94842177450852   | 4.9610780108534    occ= 0
MO #129 energy= 5.26305739161194   | 5.24598990518381   | 5.28012487804004   occ= 0
MO #130 energy= 5.26305739161216   | 5.24598990518404   | 5.28012487804026   occ= 0
MO #131 energy= 5.41233497559956   | 5.38989183430767   | 5.43477811689143   occ= 0
MO #132 energy= 5.41233497559956   | 5.38989183430767   | 5.43477811689144   occ= 0
MO #133 energy= 5.43213920895612   | 5.41715795016299   | 5.44712046774927   occ= 0
MO #134 energy= 5.43213920895613   | 5.41715795016299   | 5.44712046774927   occ= 0
MO #135 energy= 5.45642329058291   | 5.44480505310882   | 5.46804152892408   occ= 0
MO #136 energy= 5.64035582248623   | 5.5997585194031    | 5.68095312556935   occ= 0
MO #137 energy= 5.64035582248624   | 5.59975851940311   | 5.68095312556937   occ= 0
MO #138 energy= 5.65290019877267   | 5.63203787644443   | 5.67376252110091   occ= 0
MO #139 energy= 5.65290019877267   | 5.63203787644444   | 5.67376252110091   occ= 0
MO #140 energy= 5.74421383594516   | 5.73117190681607   | 5.75725576507425   occ= 0
MO #141 energy= 5.74421383594517   | 5.73117190681608   | 5.75725576507426   occ= 0
MO #142 energy= 5.83429511776698   | 5.81878014978425   | 5.84981008264126   occ= 0
MO #143 energy= 5.83429511776699   | 5.81878014978426   | 5.84981008264127   occ= 0
MO #144 energy= 5.85668199951881   | 5.84873027714628   | 5.8646337227178    occ= 0
MO #145 energy= 6.17378173612519   | 6.16661505204454   | 6.18094842016831   occ= 0
MO #146 energy= 6.18058348673501   | 6.17267268094803   | 6.18849429252198   occ= 0
MO #147 energy= 6.18058348673502   | 6.17267268094804   | 6.18849429252199   occ= 0
MO #148 energy= 6.33609303304128   | 6.32374530069342   | 6.34844076492788   occ= 0
MO #149 energy= 6.33609303304128   | 6.32374530069343   | 6.34844076492789   occ= 0
MO #150 energy= 6.45832317395992   | 6.45004165286079   | 6.46660469505906   occ= 0
MO #151 energy= 6.45832317395995   | 6.45004165286083   | 6.46660469505909   occ= 0
MO #152 energy= 6.96566961195388   | 6.95903616795245   | 6.97230305613703   occ= 0
MO #153 energy= 7.47026917749432   | 7.43062863263412   | 7.50990972207607   occ= 0
MO #154 energy= 7.4702691774944    | 7.43062863263418   | 7.50990972207613   occ= 0
MO #155 energy= 8.34069788404893   | 8.31065397589588   | 8.37074179261082   occ= 0
MO #156 energy= 8.64558132223376   | 8.63734453690951   | 8.65381810755802   occ= 0
MO #157 energy= 8.64558132223385   | 8.63734453690962   | 8.65381810755809   occ= 0
MO #158 energy= 9.94985492415159   | 9.94466693257381   | 9.95504291572939   occ= 0
MO #159 energy= 9.94985492415177   | 9.94466693257405   | 9.95504291572951   occ= 0
MO #160 energy= 10.2104068717398   | 10.2009714052143   | 10.2198423384157   occ= 0
MO #161 energy= 10.4761973817884   | 10.4676606373831   | 10.484734126183    occ= 0
MO #162 energy= 10.6506653895716   | 10.6505980508811   | 10.6507327282621   occ= 0
MO #163 energy= 10.6506653895716   | 10.6505980508811   | 10.6507327282622   occ= 0
MO #164 energy= 10.7414837153173   | 10.7348530245042   | 10.7481144061304   occ= 0
MO #165 energy= 10.7414837153173   | 10.7348530245042   | 10.7481144061304   occ= 0
MO #166 energy= 10.8285417920788   | 10.8272067207222   | 10.8298768634062   occ= 0
MO #167 energy= 10.8364785025905   | 10.7777566453471   | 10.895200359834    occ= 0
MO #168 energy= 10.8364785025906   | 10.7777566453472   | 10.895200359834    occ= 0
MO #169 energy= 10.8504126420844   | 10.8219646673205   | 10.8788606168474   occ= 0
MO #170 energy= 10.8504126420844   | 10.8219646673205   | 10.8788606168474   occ= 0
MO #171 energy= 10.9492273288568   | 10.9365924819197   | 10.961862175794    occ= 0
MO #172 energy= 10.9492273288568   | 10.9365924819197   | 10.961862175794    occ= 0
MO #173 energy= 10.970568136525    | 10.9679758860353   | 10.9731603870102   occ= 0
MO #174 energy= 10.970568136525    | 10.9679758860353   | 10.9731603870102   occ= 0
MO #175 energy= 11.0847409199427   | 11.0774217430425   | 11.0920600968427   occ= 0
MO #176 energy= 11.0847409199427   | 11.0774217430425   | 11.0920600968427   occ= 0
MO #177 energy= 11.6146446552267   | 11.6145638651673   | 11.6147254452861   occ= 0
MO #178 energy= 11.6146446552267   | 11.6145638651673   | 11.614725445286    occ= 0
MO #179 energy= 11.724819601165    | 11.7189911152166   | 11.7306480870747   occ= 0
MO #180 energy= 11.7836335170861   | 11.7832155154933   | 11.7840515186711   occ= 0
MO #181 energy= 11.7836335170861   | 11.7832155154933   | 11.7840515186711   occ= 0
MO #182 energy= 12.4453297849869   | 12.4423896811594   | 12.448269888816    occ= 0
MO #183 energy= 12.4565007554814   | 12.4498807822173   | 12.4631207287455   occ= 0
MO #184 energy= 12.4565007554814   | 12.4498807822173   | 12.4631207287455   occ= 0
MO #185 energy= 12.645749225398    | 12.6455994068566   | 12.6458990439374   occ= 0
MO #186 energy= 12.645749225398    | 12.6455994068566   | 12.6458990439374   occ= 0
MO #187 energy= 12.6905603416902   | 12.6813287479159   | 12.6997919354645   occ= 0
MO #188 energy= 12.6905603416902   | 12.6813287479159   | 12.6997919354645   occ= 0
MO #189 energy= 13.3730741960161   | 13.3588567412925   | 13.3872916507398   occ= 0
MO #190 energy= 13.3730741960163   | 13.3588567412927   | 13.38729165074     occ= 0
MO #191 energy= 13.5379971078144   | 13.5299493662978   | 13.5460448493442   occ= 0
MO #192 energy= 13.6740426237482   | 13.6665652554649   | 13.6815199921289   occ= 0
MO #193 energy= 15.2050577925459   | 15.1762120041      | 15.2339035809918   occ= 0
MO #194 energy= 15.2050577925459   | 15.1762120041      | 15.2339035809918   occ= 0
MO #195 energy= 15.2137786880119   | 15.1655964486532   | 15.2619609273707   occ= 0
MO #196 energy= 15.213778688012    | 15.1655964486532   | 15.2619609273707   occ= 0
MO #197 energy= 15.282318979948    | 15.2618908965025   | 15.3027470620624   occ= 0
MO #198 energy= 15.2823189799481   | 15.2618908965026   | 15.3027470620625   occ= 0
MO #199 energy= 15.5923516666996   | 15.5760346955384   | 15.6086686378608   occ= 0
MO #200 energy= 15.5923516666996   | 15.5760346955384   | 15.6086686378608   occ= 0
MO #201 energy= 15.8122793353852   | 15.7985037281277   | 15.8260549427282   occ= 0
MO #202 energy= 15.8953747655809   | 15.8720229034411   | 15.9187266277207   occ= 0
MO #203 energy= 15.8953747655809   | 15.8720229034411   | 15.9187266277207   occ= 0
MO #204 energy= 15.9187993298317   | 15.8839406799375   | 15.953657979726    occ= 0
MO #205 energy= 15.9187993298317   | 15.8839406799375   | 15.953657979726    occ= 0
MO #206 energy= 15.9623468970128   | 15.9451389506287   | 15.979554843397    occ= 0
MO #207 energy= 15.9623468970128   | 15.9451389506287   | 15.979554843397    occ= 0
MO #208 energy= 16.1939322576432   | 16.1798351707646   | 16.2080293445226   occ= 0
MO #209 energy= 16.1939322576432   | 16.1798351707647   | 16.2080293445226   occ= 0
MO #210 energy= 16.3657766100811   | 16.3538458394636   | 16.3777073807141   occ= 0
MO #211 energy= 16.3742612509337   | 16.3619033934582   | 16.3866191084092   occ= 0
MO #212 energy= 16.3742612509337   | 16.3619033934582   | 16.3866191084092   occ= 0
MO #213 energy= 17.7075712855973   | 17.6989637453271   | 17.7161788258797   occ= 0
MO #214 energy= 20.5957926760977   | 20.5953623729733   | 20.5962229792236   occ= 0
 ** Mulliken pop on meta-lowdin orthogonal AOs  **
 ** Mulliken pop  **
pop of  0V 3s        1.99959
pop of  0V 4s        0.87695
pop of  0V 5s        0.00539
pop of  0V 6s        0.00324
pop of  0V 7s        0.00040
pop of  0V 8s        0.00168
pop of  0V 9s        0.00137
pop of  0V 3px       1.99946
pop of  0V 3py       1.99946
pop of  0V 3pz       1.99658
pop of  0V 4px       0.00618
pop of  0V 4py       0.00618
pop of  0V 4pz       0.04553
pop of  0V 5px       0.00020
pop of  0V 5py       0.00020
pop of  0V 5pz       0.00547
pop of  0V 6px       0.00003
pop of  0V 6py       0.00003
pop of  0V 6pz       0.00135
pop of  0V 7px       0.00002
pop of  0V 7py       0.00002
pop of  0V 7pz       0.00073
pop of  0V 8px       0.00030
pop of  0V 8py       0.00030
pop of  0V 8pz       0.00792
pop of  0V 9px       0.00002
pop of  0V 9py       0.00002
pop of  0V 9pz       0.00076
pop of  0V 3dxy      0.99692
pop of  0V 3dyz      0.28817
pop of  0V 3dz^2     0.60009
pop of  0V 3dxz      0.28817
pop of  0V 3dx2-y2    0.99692
pop of  0V 4dxy      0.00195
pop of  0V 4dyz      0.00103
pop of  0V 4dz^2     0.00468
pop of  0V 4dxz      0.00103
pop of  0V 4dx2-y2    0.00195
pop of  0V 5dxy      0.00011
pop of  0V 5dyz      0.00008
pop of  0V 5dz^2     0.00179
pop of  0V 5dxz      0.00008
pop of  0V 5dx2-y2    0.00011
pop of  0V 6dxy      0.00001
pop of  0V 6dyz      0.00001
pop of  0V 6dz^2     0.00011
pop of  0V 6dxz      0.00001
pop of  0V 6dx2-y2    0.00001
pop of  0V 7dxy      0.00033
pop of  0V 7dyz      0.00003
pop of  0V 7dz^2     0.00067
pop of  0V 7dxz      0.00003
pop of  0V 7dx2-y2    0.00033
pop of  0V 8dxy      0.00005
pop of  0V 8dyz      0.00000
pop of  0V 8dz^2     0.00016
pop of  0V 8dxz      0.00000
pop of  0V 8dx2-y2    0.00005
pop of  0V 4fy^3     0.00000
pop of  0V 4fxyz     0.00000
pop of  0V 4fyz^2    0.00004
pop of  0V 4fz^3     0.00012
pop of  0V 4fxz^2    0.00004
pop of  0V 4fzx^2    0.00000
pop of  0V 4fx^3     0.00000
pop of  0V 5fy^3     0.00000
pop of  0V 5fxyz     0.00002
pop of  0V 5fyz^2    0.00047
pop of  0V 5fz^3     0.00078
pop of  0V 5fxz^2    0.00047
pop of  0V 5fzx^2    0.00002
pop of  0V 5fx^3     0.00000
pop of  0V 6fy^3     0.00000
pop of  0V 6fxyz     0.00008
pop of  0V 6fyz^2    0.00081
pop of  0V 6fz^3     0.00273
pop of  0V 6fxz^2    0.00081
pop of  0V 6fzx^2    0.00008
pop of  0V 6fx^3     0.00000
pop of  0V 7fy^3     0.00000
pop of  0V 7fxyz     0.00004
pop of  0V 7fyz^2    0.00019
pop of  0V 7fz^3     0.00210
pop of  0V 7fxz^2    0.00019
pop of  0V 7fzx^2    0.00004
pop of  0V 7fx^3     0.00000
pop of  0V 5g-4      0.00000
pop of  0V 5g-3      0.00000
pop of  0V 5g-2      0.00000
pop of  0V 5g-1      0.00000
pop of  0V 5g 0      0.00001
pop of  0V 5g 1      0.00000
pop of  0V 5g 2      0.00000
pop of  0V 5g 3      0.00000
pop of  0V 5g 4      0.00000
pop of  0V 6g-4      0.00000
pop of  0V 6g-3      0.00000
pop of  0V 6g-2      0.00000
pop of  0V 6g-1      0.00008
pop of  0V 6g 0      0.00011
pop of  0V 6g 1      0.00008
pop of  0V 6g 2      0.00000
pop of  0V 6g 3      0.00000
pop of  0V 6g 4      0.00000
pop of  0V 7g-4      0.00000
pop of  0V 7g-3      0.00000
pop of  0V 7g-2      0.00000
pop of  0V 7g-1      0.00001
pop of  0V 7g 0      0.00103
pop of  0V 7g 1      0.00001
pop of  0V 7g 2      0.00000
pop of  0V 7g 3      0.00000
pop of  0V 7g 4      0.00000
pop of  0V 6h-5      0.00000
pop of  0V 6h-4      0.00000
pop of  0V 6h-3      0.00000
pop of  0V 6h-2      0.00000
pop of  0V 6h-1      0.00000
pop of  0V 6h 0      0.00000
pop of  0V 6h 1      0.00000
pop of  0V 6h 2      0.00000
pop of  0V 6h 3      0.00000
pop of  0V 6h 4      0.00000
pop of  0V 6h 5      0.00000
pop of  0V 7h-5      0.00000
pop of  0V 7h-4      0.00000
pop of  0V 7h-3      0.00000
pop of  0V 7h-2      0.00000
pop of  0V 7h-1      0.00000
pop of  0V 7h 0      0.00010
pop of  0V 7h 1      0.00000
pop of  0V 7h 2      0.00000
pop of  0V 7h 3      0.00000
pop of  0V 7h 4      0.00000
pop of  0V 7h 5      0.00000
pop of  1O 2s        1.86568
pop of  1O 3s        0.00158
pop of  1O 4s        0.00029
pop of  1O 5s        0.00521
pop of  1O 6s        0.01302
pop of  1O 2px       1.68802
pop of  1O 2py       1.68802
pop of  1O 2pz       1.53668
pop of  1O 3px       0.00076
pop of  1O 3py       0.00076
pop of  1O 3pz       0.00021
pop of  1O 4px       0.00033
pop of  1O 4py       0.00033
pop of  1O 4pz       0.00057
pop of  1O 5px       0.00391
pop of  1O 5py       0.00391
pop of  1O 5pz       0.00113
pop of  1O 6px       0.00175
pop of  1O 6py       0.00175
pop of  1O 6pz       0.00422
pop of  1O 3dxy      0.00000
pop of  1O 3dyz      0.00010
pop of  1O 3dz^2     0.00015
pop of  1O 3dxz      0.00010
pop of  1O 3dx2-y2    0.00000
pop of  1O 4dxy      0.00001
pop of  1O 4dyz      0.00111
pop of  1O 4dz^2     0.00149
pop of  1O 4dxz      0.00111
pop of  1O 4dx2-y2    0.00001
pop of  1O 5dxy      0.00001
pop of  1O 5dyz      0.00353
pop of  1O 5dz^2     0.00241
pop of  1O 5dxz      0.00353
pop of  1O 5dx2-y2    0.00001
pop of  1O 6dxy      0.00030
pop of  1O 6dyz      0.00302
pop of  1O 6dz^2     0.00494
pop of  1O 6dxz      0.00302
pop of  1O 6dx2-y2    0.00030
pop of  1O 4fy^3     0.00000
pop of  1O 4fxyz     0.00000
pop of  1O 4fyz^2    0.00002
pop of  1O 4fz^3     0.00003
pop of  1O 4fxz^2    0.00002
pop of  1O 4fzx^2    0.00000
pop of  1O 4fx^3     0.00000
pop of  1O 5fy^3     0.00000
pop of  1O 5fxyz     0.00000
pop of  1O 5fyz^2    0.00017
pop of  1O 5fz^3     0.00015
pop of  1O 5fxz^2    0.00017
pop of  1O 5fzx^2    0.00000
pop of  1O 5fx^3     0.00000
pop of  1O 6fy^3     0.00000
pop of  1O 6fxyz     0.00014
pop of  1O 6fyz^2    0.00016
pop of  1O 6fz^3     0.00067
pop of  1O 6fxz^2    0.00016
pop of  1O 6fzx^2    0.00014
pop of  1O 6fx^3     0.00000
pop of  1O 5g-4      0.00000
pop of  1O 5g-3      0.00000
pop of  1O 5g-2      0.00000
pop of  1O 5g-1      0.00001
pop of  1O 5g 0      0.00001
pop of  1O 5g 1      0.00001
pop of  1O 5g 2      0.00000
pop of  1O 5g 3      0.00000
pop of  1O 5g 4      0.00000
pop of  1O 6g-4      0.00000
pop of  1O 6g-3      0.00000
pop of  1O 6g-2      0.00001
pop of  1O 6g-1      0.00000
pop of  1O 6g 0      0.00010
pop of  1O 6g 1      0.00000
pop of  1O 6g 2      0.00001
pop of  1O 6g 3      0.00000
pop of  1O 6g 4      0.00000
 ** Mulliken atomic charges  **
charge of  0V =      0.84527
charge of  1O =     -0.84527

******** <class 'pyscf.mcscf.mc1step.CASSCF'> flags ********
CAS (6e+3e, 9o), ncore = 5, nvir = 200
max_cycle_macro = 50
max_cycle_micro = 4
conv_tol = 1e-07
conv_tol_grad = None
orbital rotation max_stepsize = 0.02
augmented hessian ah_max_cycle = 30
augmented hessian ah_conv_tol = 1e-12
augmented hessian ah_linear dependence = 1e-14
augmented hessian ah_level shift = 0
augmented hessian ah_start_tol = 2.5
augmented hessian ah_start_cycle = 3
augmented hessian ah_grad_trust_region = 3
kf_trust_region = 3
kf_interval = 4
ci_response_space = 4
ci_grad_trust_region = 3
with_dep4 0
natorb = False
canonicalization = True
sorting_mo_energy = False
chkfile = ./scratch/16565/tmpLywk3N
max_memory 4000 MB (current use 2658 MB)
internal_rotation = False

******** SHCI flags ********
executable             = /home/bamu3429/softwares/dice/Dice
mpiprefix              = srun -n20
scratchDirectory       = ./scratch/16565
integralFile           = ./FCIDUMP
configFile             = ./input.dat
outputFile             = ./output.dat
maxIter                = 6
sweep_iter             = []
sweep_epsilon          = []
nPTiter                = 0
Stochastic             = True
fullrestart            = False
restart                = False
num_thrds              = 12
memory                 = None

CASCI E = -86.4082621177073  S^2 = 3.7500000
Set conv_tol_grad to 0.000316228
macro iter 1 (7 JK  2 micro), CASSCF E = -86.4085818402637  dE = -0.00031972256  S^2 = 3.7500000
               |grad[o]|=0.000638  |grad[c]|= None  |ddm|=0.00982
macro iter 2 (21 JK  4 micro), CASSCF E = -86.4195065460073  dE = -0.010924706  S^2 = 3.7500000
               |grad[o]|=0.00231  |grad[c]|= None  |ddm|=0.0272
macro iter 3 (21 JK  4 micro), CASSCF E = -86.4441789909428  dE = -0.024672445  S^2 = 3.7500000
               |grad[o]|=0.0444  |grad[c]|= None  |ddm|=0.0769
macro iter 4 (21 JK  4 micro), CASSCF E = -86.4782054947909  dE = -0.034026504  S^2 = 3.7500000
               |grad[o]|=0.0687  |grad[c]|= None  |ddm|=0.0463
macro iter 5 (21 JK  4 micro), CASSCF E = -86.535250786289  dE = -0.057045291  S^2 = 3.7500000
               |grad[o]|=0.0858  |grad[c]|= None  |ddm|=0.0555
macro iter 6 (20 JK  4 micro), CASSCF E = -86.5624904545505  dE = -0.027239668  S^2 = 3.7500000
               |grad[o]|=0.0773  |grad[c]|= None  |ddm|=0.0667
macro iter 7 (11 JK  4 micro), CASSCF E = -86.5628083524166  dE = -0.00031789787  S^2 = 3.7500000
               |grad[o]|=0.0169  |grad[c]|= None  |ddm|=0.0271
macro iter 8 (10 JK  4 micro), CASSCF E = -86.5628223550535  dE = -1.4002637e-05  S^2 = 3.7500000
               |grad[o]|=0.00122  |grad[c]|= None  |ddm|=0.00383
macro iter 9 (3 JK  1 micro), CASSCF E = -86.5628224341566  dE = -7.9103145e-08  S^2 = 3.7500000
               |grad[o]|=0.000233  |grad[c]|= None  |ddm|=0.000369
1-step CASSCF converged in 9 macro (135 JK 31 micro) steps
CASSCF canonicalization
CASSCF energy = -86.5628224341566


--------------------------------------------------
                 ICMPSPT CALCULATION              
--------------------------------------------------

Perturbation type: MRLCC
With fully internally contracted scheme
With third order correction

Preparing necessary RDMs
......production of RDMs took      39.20 sec
Reading binary 4RDM from DICE
......reading the RDM took         27.03 sec

(GOOD) Trace 4RDM:   3024.0 =    9*    8*    7*    6
(GOOD) Trace 3RDM:    504.0 =    9*    8*    7
(GOOD) Trace 2RDM:     72.0 =    9*    8
(GOOD) Trace 1RDM:      9.0 =    9

Producing the integrals
......production of INT took     584.12 sec

Energy_core =  -92.46444578
Energy      =  -86.56282243

WARNING: Have to use natural orbitals from CAASCF
         offdiagonal elements:    0.56788353

Basic ingredients written to int/
......savings of INGREDIENTS took     255.81 sec

Second-order:
perturber CCVV --        -0.140717975
perturber CCAV --        -0.071742293
perturber ACVV --        -0.175130339
perturber CCAA --        -0.038657597
perturber AAVV --        -0.144517306
perturber CAAV --        -0.140980352
perturber AAAV --        -0.033761212
perturber AAAC --        -0.004792189
Total:                   -0.750299263

Third-order:              0.001905458

Total PT       --        -0.748393804

