 &FCI NORB=9 ,NELEC=8 ,MS2=2,
  ORBSYM=1,1,1,1,1,1,1,1,1,
  ISYM=1,
 &END
  6.511298732585e-01    1  1  1  1
  1.334159359490e-10    2  1  1  1
  2.936433075526e-02    2  1  2  1
  5.848702917536e-01    2  2  1  1
  1.496966166715e-10    2  2  2  1
  6.407601202847e-01    2  2  2  2
  2.850001514594e-11    3  1  1  1
  2.876922338433e-11    3  1  2  2
  2.936433075526e-02    3  1  3  1
  1.584163975764e-12    3  2  2  1
 -2.217799428464e-06    3  2  2  2
 -5.536720981669e-12    3  2  3  1
  2.851844460145e-02    3  2  3  2
  5.848702917536e-01    3  3  1  1
  1.565213493741e-10    3  3  2  1
  5.837365245477e-01    3  3  2  2
  2.969108966873e-11    3  3  3  1
  2.217799410155e-06    3  3  3  2
  6.407601202847e-01    3  3  3  3
  2.275770568696e-02    4  1  1  1
 -8.640665908750e-11    4  1  2  1
  1.678427506212e-02    4  1  2  2
 -8.758625905681e-12    4  1  3  1
  1.678427506212e-02    4  1  3  3
  4.590316845278e-03    4  1  4  1
 -1.186582350042e-09    4  2  1  1
 -5.732118134066e-04    4  2  2  1
 -1.024669472444e-09    4  2  2  2
 -1.014487147299e-07    4  2  3  1
 -1.041918811253e-09    4  2  3  3
 -3.965796300539e-11    4  2  4  1
  1.772861788556e-03    4  2  4  2
 -1.075664370792e-10    4  3  1  1
  1.014487144342e-07    4  3  2  1
 -9.308866308509e-11    4  3  2  2
 -5.732118134063e-04    4  3  3  1
  1.015528007810e-11    4  3  3  2
 -9.122665827245e-11    4  3  3  3
 -1.974798243187e-12    4  3  4  1
  1.772861788556e-03    4  3  4  3
  2.300196207587e-01    4  4  1  1
 -1.397625420568e-10    4  4  2  1
  2.132835874581e-01    4  4  2  2
 -1.883216404731e-11    4  4  3  1
  2.132835874581e-01    4  4  3  3
  3.230912699679e-03    4  4  4  1
 -3.583610423295e-10    4  4  4  2
 -3.415385590622e-11    4  4  4  3
  2.647793365533e-01    4  4  4  4
  7.812453858092e-12    5  1  2  1
 -7.330090326545e-05    5  1  2  2
 -4.349707348690e-11    5  1  3  1
  2.410384721670e-04    5  1  3  2
  7.330090326360e-05    5  1  3  3
 -5.205155852890e-12    5  1  4  2
  2.701532554290e-11    5  1  4  3
  7.635562621350e-03    5  1  5  1
  7.980517679382e-12    5  2  1  1
  5.508889778544e-04    5  2  2  1
 -4.692655531080e-12    5  2  2  2
 -1.806721903329e-03    5  2  3  1
  9.798937782475e-12    5  2  3  2
 -1.215043047505e-12    5  2  3  3
 -1.279925808487e-11    5  2  4  1
 -1.608025419549e-04    5  2  4  2
  5.272374400433e-04    5  2  4  3
  4.405915507599e-11    5  2  4  4
 -5.194225130175e-11    5  2  5  1
  4.579236376323e-03    5  2  5  2
 -5.822622252225e-11    5  3  1  1
 -1.806721903328e-03    5  3  2  1
  3.316018002138e-12    5  3  2  2
 -5.508889778546e-04    5  3  3  1
  1.468087566530e-11    5  3  3  3
  7.047505145719e-11    5  3  4  1
  5.272374400427e-04    5  3  4  2
  1.608025419549e-04    5  3  4  3
 -2.482451504739e-10    5  3  4  4
 -6.245297652623e-12    5  3  5  1
  4.579236376328e-03    5  3  5  3
 -1.861344624712e-12    5  4  2  1
 -6.651882183394e-04    5  4  2  2
 -2.293025137266e-12    5  4  3  1
  2.180858953932e-03    5  4  3  2
  6.651882183410e-04    5  4  3  3
  1.191306069120e-11    5  4  4  2
 -5.514686163381e-11    5  4  4  3
  2.865447943977e-03    5  4  5  1
  1.748750501883e-11    5  4  5  2
  1.054953790087e-02    5  4  5  4
  3.825352452461e-01    5  5  1  1
 -2.606438964343e-10    5  5  2  1
  3.313182509120e-01    5  5  2  2
 -2.681539891523e-11    5  5  3  1
  3.313182509120e-01    5  5  3  3
  2.444893463270e-02    5  5  4  1
 -1.659847925362e-10    5  5  4  2
 -1.838742410292e-11    5  5  4  3
  3.133770490248e-01    5  5  4  4
  7.516926377081e-12    5  5  5  2
 -5.883457405361e-11    5  5  5  3
  6.476914972306e-01    5  5  5  5
 -3.280063724493e-11    6  1  1  1
 -8.014080669455e-03    6  1  2  1
 -1.130307638831e-10    6  1  2  2
 -6.394978382635e-03    6  1  3  1
 -2.370019627309e-11    6  1  3  2
 -6.639489854281e-11    6  1  3  3
 -1.095372671718e-11    6  1  4  1
 -4.041808044966e-04    6  1  4  2
 -3.225579558521e-04    6  1  4  3
  1.954853994390e-10    6  1  4  4
  1.495413405604e-11    6  1  5  1
 -6.557973419452e-04    6  1  5  2
 -1.653201760806e-03    6  1  5  3
  1.274295765209e-11    6  1  5  4
 -1.322294221947e-10    6  1  5  5
  1.354103500233e-02    6  1  6  1
 -1.067181258302e-01    6  2  1  1
 -2.385579916426e-10    6  2  2  1
 -1.398930170033e-01    6  2  2  2
 -6.266749334651e-11    6  2  3  1
 -7.218334052436e-03    6  2  3  2
 -1.217714742016e-01    6  2  3  3
  1.969771622141e-04    6  2  4  1
  9.530489600010e-10    6  2  4  2
  1.407463421942e-10    6  2  4  3
  2.357876384743e-02    6  2  4  4
  5.251211975878e-04    6  2  5  1
  7.733706131261e-12    6  2  5  2
 -2.947031352846e-11    6  2  5  3
  8.261877993451e-04    6  2  5  4
  5.915080892673e-02    6  2  5  5
  2.321684370482e-11    6  2  6  1
  9.890722721074e-02    6  2  6  2
 -8.516958141529e-02    6  3  1  1
 -1.587113379998e-10    6  3  2  1
 -9.719247094374e-02    6  3  2  2
 -2.494692783446e-11    6  3  3  1
 -9.033506771595e-03    6  3  3  2
 -1.116327629128e-01    6  3  3  3
  1.566747193157e-04    6  3  4  1
  6.251872245925e-10    6  3  4  2
  1.476198677734e-10    6  3  4  3
  1.881459293558e-02    6  3  4  4
  1.323517450452e-03    6  3  5  1
  1.010039485526e-11    6  3  5  2
 -2.047422230973e-11    6  3  5  3
  2.083006389331e-03    6  3  5  4
  4.719738269120e-02    6  3  5  5
  4.946048082361e-12    6  3  6  1
  6.868868438455e-02    6  3  6  2
  6.767777294883e-02    6  3  6  3
  2.086238010413e-09    6  4  1  1
 -1.711859182036e-03    6  4  2  1
  2.521572865023e-09    6  4  2  2
 -1.366250167384e-03    6  4  3  1
  1.174376291764e-10    6  4  3  2
  2.281326622238e-09    6  4  3  3
  1.502476611381e-10    6  4  4  1
  2.138648423724e-03    6  4  4  2
  1.706671672952e-03    6  4  4  3
 -4.452509111261e-10    6  4  4  4
  1.430356171737e-11    6  4  5  1
  2.850908004858e-04    6  4  5  2
  7.188945643488e-04    6  4  5  3
 -3.623167902380e-11    6  4  5  4
 -5.306096760131e-10    6  4  5  5
 -2.287242103071e-05    6  4  6  1
 -1.385951626698e-09    6  4  6  2
 -1.024427959143e-09    6  4  6  3
  5.534770268088e-03    6  4  6  4
 -1.698461257454e-11    6  5  1  1
 -1.214517641095e-03    6  5  2  1
 -1.786267705453e-11    6  5  2  2
 -3.063157946065e-03    6  5  3  1
  6.798716805821e-12    6  5  3  2
 -2.579292888841e-11    6  5  3  3
  1.863387283108e-11    6  5  4  1
  4.252615233585e-04    6  5  4  2
  1.072750411771e-03    6  5  4  3
 -6.878384233734e-11    6  5  4  4
 -1.406510852866e-11    6  5  5  1
  5.506602426658e-03    6  5  5  2
  4.393948254040e-03    6  5  5  3
 -3.578377552785e-11    6  5  5  4
 -2.312219203418e-11    6  5  5  5
 -1.932969055446e-03    6  5  6  1
  2.905025695343e-11    6  5  6  2
  9.495369446616e-12    6  5  6  3
  1.503284174475e-03    6  5  6  4
  1.498986082775e-02    6  5  6  5
  5.137805408253e-01    6  6  1  1
 -5.963775428045e-12    6  6  2  1
  5.046275459517e-01    6  6  2  2
 -9.245082815709e-12    6  6  3  1
  1.646153483563e-02    6  6  3  2
  4.971803635007e-01    6  6  3  3
  2.221147212416e-02    6  6  4  1
 -1.085417125307e-09    6  6  4  2
 -1.600069865431e-10    6  6  4  3
  2.607908859266e-01    6  6  4  4
  2.919190788363e-03    6  6  5  1
  2.744734837430e-11    6  6  5  2
 -2.897866297200e-11    6  6  5  3
  3.833431948236e-03    6  6  5  4
  4.611774480589e-01    6  6  5  5
 -1.532942345519e-10    6  6  6  1
 -5.618754634273e-02    6  6  6  2
 -4.480383048327e-02    6  6  6  3
  1.394997538370e-09    6  6  6  4
 -9.985821885867e-12    6  6  6  5
  5.275783640469e-01    6  6  6  6
  8.228356068619e-11    7  1  1  1
  6.394978382636e-03    7  1  2  1
  1.345583139765e-10    7  1  2  2
 -8.014080669452e-03    7  1  3  1
 -2.542013249309e-11    7  1  3  2
  8.797182035709e-11    7  1  3  3
  3.771903190735e-12    7  1  4  1
  3.225579558524e-04    7  1  4  2
 -4.041808044964e-04    7  1  4  3
 -1.210617010853e-10    7  1  4  4
  2.723258499217e-11    7  1  5  1
 -1.653201760806e-03    7  1  5  2
  6.557973419455e-04    7  1  5  3
  2.155919279459e-11    7  1  5  4
  8.504427047023e-11    7  1  5  5
 -3.082094762638e-11    7  1  6  2
 -2.826240690423e-11    7  1  6  3
 -6.506842124978e-08    7  1  6  4
 -1.105753602789e-03    7  1  6  5
  1.109357160509e-10    7  1  6  6
  1.354103500233e-02    7  1  7  1
  8.516958141531e-02    7  2  1  1
  1.936343872812e-10    7  2  2  1
  1.116327629128e-01    7  2  2  2
 -3.229597608988e-11    7  2  3  1
 -9.033506771603e-03    7  2  3  2
  9.719247094375e-02    7  2  3  3
 -1.566747193135e-04    7  2  4  1
 -7.495787300100e-10    7  2  4  2
  4.431857200074e-11    7  2  4  3
 -1.881459293557e-02    7  2  4  4
  1.323517450451e-03    7  2  5  1
  2.418719718083e-11    7  2  5  3
  2.083006389331e-03    7  2  5  4
 -4.719738269118e-02    7  2  5  5
 -8.536283072322e-12    7  2  6  1
 -6.866954330839e-02    7  2  6  2
 -4.194043038805e-02    7  2  6  3
  1.011262772940e-09    7  2  6  4
  1.686629058552e-11    7  2  6  5
  4.006599522353e-02    7  2  6  6
  4.267016127923e-11    7  2  7  1
  6.767777294883e-02    7  2  7  2
 -1.067181258302e-01    7  3  1  1
 -1.877122354629e-10    7  3  2  1
 -1.217714742015e-01    7  3  2  2
 -2.664776130849e-11    7  3  3  1
  7.218334052446e-03    7  3  3  2
 -1.398930170033e-01    7  3  3  3
  1.969771622169e-04    7  3  4  1
  7.670736924328e-10    7  3  4  2
  1.616314270921e-11    7  3  4  3
  2.357876384744e-02    7  3  4  4
 -5.251211975857e-04    7  3  5  1
  3.299618930015e-12    7  3  5  2
 -2.682033161648e-11    7  3  5  3
 -8.261877993445e-04    7  3  5  4
  5.915080892675e-02    7  3  5  5
  6.253088623672e-12    7  3  6  1
  7.321095260878e-02    7  3  6  2
  6.866954330838e-02    7  3  6  3
 -1.142455187261e-09    7  3  6  4
  8.265985834862e-12    7  3  6  5
 -5.014429283789e-02    7  3  6  6
 -3.155543346853e-11    7  3  7  1
 -6.868868438454e-02    7  3  7  2
  9.890722721072e-02    7  3  7  3
 -1.411988292193e-09    7  4  1  1
  1.366250167384e-03    7  4  2  1
 -1.727247895963e-09    7  4  2  2
 -1.711859182036e-03    7  4  3  1
  1.251989544291e-10    7  4  3  2
 -1.494421413932e-09    7  4  3  3
 -9.899796987073e-11    7  4  4  1
 -1.706671672952e-03    7  4  4  2
  2.138648423724e-03    7  4  4  3
  2.892503052303e-10    7  4  4  4
  2.663337464624e-11    7  4  5  1
  7.188945643503e-04    7  4  5  2
 -2.850908004850e-04    7  4  5  3
 -7.996511935647e-11    7  4  5  4
  3.152346171681e-10    7  4  5  5
  6.506842062645e-08    7  4  6  1
  8.644563767832e-10    7  4  6  2
  5.487523444672e-10    7  4  6  3
  8.605276861705e-04    7  4  6  5
 -8.565467076947e-10    7  4  6  6
 -2.287242103168e-05    7  4  7  1
 -7.848510529390e-10    7  4  7  2
  8.432490137305e-10    7  4  7  3
  5.534770268089e-03    7  4  7  4
 -3.677604392330e-11    7  5  1  1
 -3.063157946065e-03    7  5  2  1
 -3.810607676585e-11    7  5  2  2
  1.214517641095e-03    7  5  3  1
 -5.607244647829e-11    7  5  3  3
  3.413811107623e-11    7  5  4  1
  1.072750411772e-03    7  5  4  2
 -4.252615233580e-04    7  5  4  3
 -1.409340965318e-10    7  5  4  4
  7.723490665552e-12    7  5  5  1
 -4.393948254038e-03    7  5  5  2
  5.506602426659e-03    7  5  5  3
  2.423411803464e-11    7  5  5  4
 -3.594656804984e-11    7  5  5  5
 -1.105753602789e-03    7  5  6  1
  2.235963209232e-11    7  5  6  2
  1.162494532399e-11    7  5  6  3
  8.605276861704e-04    7  5  6  4
 -4.736385383769e-11    7  5  6  6
  1.932969055446e-03    7  5  7  1
 -3.611323208088e-11    7  5  7  2
  1.252147537005e-11    7  5  7  3
 -1.503284174475e-03    7  5  7  4
  1.498986082775e-02    7  5  7  5
  6.931012667257e-12    7  6  2  1
 -1.642966270125e-02    7  6  2  2
 -9.560851748276e-12    7  6  3  1
  3.758134047913e-03    7  6  3  2
  1.642966270117e-02    7  6  3  3
  7.136036683206e-11    7  6  4  2
 -1.940930902853e-11    7  6  4  3
  1.669950464624e-03    7  6  5  1
  1.417910372929e-11    7  6  5  2
  3.935272260780e-12    7  6  5  3
  2.193620267587e-03    7  6  5  4
  1.121616785022e-11    7  6  6  1
  2.446085783640e-03    7  6  6  2
 -3.009682034423e-03    7  6  6  3
 -4.162178382876e-11    7  6  6  4
  5.353065249584e-12    7  6  6  5
  7.378740149188e-05    7  6  6  6
 -1.651606906146e-11    7  6  7  1
 -3.009682034478e-03    7  6  7  2
 -2.446085783568e-03    7  6  7  3
  7.104975671195e-11    7  6  7  4
 -5.760094960427e-12    7  6  7  5
  1.795006129512e-02    7  6  7  6
  5.137805408253e-01    7  7  1  1
  5.535086115552e-12    7  7  2  1
  4.971803635007e-01    7  7  2  2
  1.356670650852e-11    7  7  3  1
 -1.646153483563e-02    7  7  3  2
  5.046275459516e-01    7  7  3  3
  2.221147212416e-02    7  7  4  1
 -1.038479843098e-09    7  7  4  2
 -2.430656225861e-11    7  7  4  3
  2.607908859266e-01    7  7  4  4
 -2.919190788363e-03    7  7  5  1
 -2.138801044130e-11    7  7  5  2
 -3.358248124533e-11    7  7  5  3
 -3.833431948234e-03    7  7  5  4
  4.611774480589e-01    7  7  5  5
 -1.203582652548e-10    7  7  6  1
 -5.014429283789e-02    7  7  6  2
 -4.006599522347e-02    7  7  6  3
  1.253554119849e-09    7  7  6  4
 -3.291947549461e-11    7  7  6  5
  4.915090080719e-01    7  7  6  6
  1.379219289849e-10    7  7  7  1
  4.480383048326e-02    7  7  7  2
 -5.618754634265e-02    7  7  7  3
 -9.622351609242e-10    7  7  7  4
 -3.909881273738e-11    7  7  7  5
 -7.378740151677e-05    7  7  7  6
  5.275783640469e-01    7  7  7  7
  1.251144068917e-01    8  1  1  1
  4.061875521332e-10    8  1  2  1
  1.322963778318e-01    8  1  2  2
  5.210732145985e-11    8  1  3  1
  1.322963778318e-01    8  1  3  3
 -3.424341298587e-03    8  1  4  1
 -5.935158561775e-10    8  1  4  2
 -5.162325381464e-11    8  1  4  3
 -4.865996642172e-02    8  1  4  4
 -5.884553790378e-12    8  1  5  2
  3.641639724557e-11    8  1  5  3
 -1.210899361020e-01    8  1  5  5
 -1.602625785256e-10    8  1  6  1
 -9.367789292013e-02    8  1  6  2
 -7.475707806962e-02    8  1  6  3
  1.320441946865e-09    8  1  6  4
  2.370270356067e-11    8  1  6  5
  2.041709883443e-02    8  1  6  6
  1.467298909927e-10    8  1  7  1
  7.475707806962e-02    8  1  7  2
 -9.367789292012e-02    8  1  7  3
 -8.744340072665e-10    8  1  7  4
  4.161764748874e-11    8  1  7  5
  2.041709883439e-02    8  1  7  7
  1.498220008529e-01    8  1  8  1
  2.707099918648e-09    8  2  1  1
  1.334304196442e-02    8  2  2  1
  2.263848902132e-09    8  2  2  2
 -3.958630025211e-07    8  2  3  1
  2.386609643643e-09    8  2  3  3
 -9.175928302357e-11    8  2  4  1
  2.716125180506e-04    8  2  4  2
  8.082797753077e-08    8  2  4  3
  4.307328326039e-10    8  2  4  4
 -7.691851857876e-12    8  2  5  1
  4.257276392035e-04    8  2  5  2
 -1.395058262998e-03    8  2  5  3
 -7.915759041880e-12    8  2  5  4
 -5.814507826455e-10    8  2  5  5
 -6.212022205744e-03    8  2  6  1
 -2.489624459323e-09    8  2  6  2
 -1.692779071289e-09    8  2  6  3
 -1.170787488715e-03    8  2  6  4
  3.121005199862e-05    8  2  6  5
  2.163211039386e-09    8  2  6  6
  4.956861657054e-03    8  2  7  1
  1.964206236284e-09    8  2  7  2
 -2.088711576020e-09    8  2  7  3
  9.343949864411e-04    8  2  7  4
  7.772793129710e-05    8  2  7  5
 -1.484042483932e-10    8  2  7  6
  2.072679995374e-09    8  2  7  7
  2.311046672456e-09    8  2  8  1
  1.281661621553e-02    8  2  8  2
  2.490445308204e-10    8  3  1  1
  3.958630020109e-07    8  3  2  1
  2.156668292589e-10    8  3  2  2
  1.334304196442e-02    8  3  3  1
 -6.281766602987e-11    8  3  3  2
  2.113915436741e-10    8  3  3  3
 -1.456420255526e-11    8  3  4  1
 -8.082797778926e-08    8  3  4  2
  2.716125180512e-04    8  3  4  3
  5.094098278471e-11    8  3  4  4
  4.785786254436e-11    8  3  5  1
 -1.395058262998e-03    8  3  5  2
 -4.257276392041e-04    8  3  5  3
  4.989645790631e-11    8  3  5  4
 -5.820275162688e-11    8  3  5  5
 -4.956861657053e-03    8  3  6  1
 -3.257489646189e-10    8  3  6  2
 -3.593919065156e-10    8  3  6  3
 -9.343949864407e-04    8  3  6  4
  7.772793129689e-05    8  3  6  5
  3.194881596186e-10    8  3  6  6
 -6.212022205740e-03    8  3  7  1
 -4.876700302563e-11    8  3  7  2
 -5.680902859327e-11    8  3  7  3
 -1.170787488714e-03    8  3  7  4
 -3.121005199813e-05    8  3  7  5
  4.045712280141e-11    8  3  7  6
  2.326689889760e-11    8  3  7  7
  2.091381250519e-10    8  3  8  1
  1.281661621553e-02    8  3  8  3
 -2.903608106319e-02    8  4  1  1
  1.157863276108e-10    8  4  2  1
 -2.174764624306e-02    8  4  2  2
  2.210526898760e-11    8  4  3  1
 -2.174764624306e-02    8  4  3  3
 -7.186216147844e-03    8  4  4  1
 -1.164379570072e-10    8  4  4  2
 -1.901766818543e-11    8  4  4  3
 -7.624148330908e-03    8  4  4  4
 -5.313652238612e-11    8  4  5  2
  2.961081474785e-10    8  4  5  3
 -5.478997776563e-02    8  4  5  5
 -1.625214010860e-10    8  4  6  1
 -8.946545090922e-03    8  4  6  2
 -7.138721804584e-03    8  4  6  3
 -5.082172039925e-11    8  4  6  4
  9.503593927237e-11    8  4  6  5
 -3.887459179983e-02    8  4  6  6
  9.712464095911e-11    8  4  7  1
  7.138721804582e-03    8  4  7  2
 -8.946545090923e-03    8  4  7  3
  1.451391518747e-11    8  4  7  4
  1.976467444606e-10    8  4  7  5
 -3.887459179983e-02    8  4  7  7
  1.765610278431e-02    8  4  8  1
  2.871639935483e-10    8  4  8  2
  2.776680516925e-11    8  4  8  3
  1.616435725512e-02    8  4  8  4
 -9.275669509575e-12    8  5  2  1
  7.072257767962e-04    8  5  2  2
  9.121900436780e-11    8  5  3  1
 -2.319249020937e-03    8  5  3  2
 -7.072257767983e-04    8  5  3  3
 -1.703536909601e-11    8  5  4  2
  6.743530620891e-11    8  5  4  3
 -1.218647212958e-02    8  5  5  1
 -1.001207955661e-10    8  5  5  2
 -6.832737649463e-12    8  5  5  3
 -6.220225786961e-03    8  5  5  4
  9.993096550576e-12    8  5  6  1
 -1.126122587295e-03    8  5  6  2
 -2.838935416215e-03    8  5  6  3
  3.694204024841e-11    8  5  6  4
 -5.399661212459e-11    8  5  6  5
 -5.853127635471e-03    8  5  6  6
  2.656710333663e-11    8  5  7  1
 -2.838935416215e-03    8  5  7  2
  1.126122587295e-03    8  5  7  3
  9.559937530249e-11    8  5  7  4
  2.935496581245e-11    8  5  7  5
 -3.348995111168e-03    8  5  7  6
  5.853127635469e-03    8  5  7  7
 -4.609592052187e-11    8  5  8  2
  2.067795136562e-10    8  5  8  3
  2.258353520984e-02    8  5  8  5
 -5.981161485138e-09    8  6  1  1
 -9.878400427450e-03    8  6  2  1
 -6.533870956443e-09    8  6  2  2
 -7.883221450850e-03    8  6  3  1
 -2.343874920416e-10    8  6  3  2
 -6.052877546311e-09    8  6  3  3
 -4.352096266201e-10    8  6  4  1
 -3.907535312236e-04    8  6  4  2
 -3.117996912761e-04    8  6  4  3
  6.046638499577e-10    8  6  4  4
  3.752928036752e-11    8  6  5  1
  3.509278925563e-04    8  6  5  2
  8.842622346543e-04    8  6  5  3
  5.067487085427e-11    8  6  5  4
 -8.877950432437e-10    8  6  5  5
  2.085876638272e-03    8  6  6  1
  3.177010854916e-09    8  6  6  2
  2.287575421126e-09    8  6  6  3
  2.238700848957e-04    8  6  6  4
  2.908749566526e-03    8  6  6  5
 -4.978352968112e-09    8  6  6  6
  1.231953523081e-07    8  6  7  1
 -2.244127031302e-09    8  6  7  2
  2.538962214613e-09    8  6  7  3
 -8.033169737477e-08    8  6  7  4
  1.663933697197e-03    8  6  7  5
  1.683734395875e-10    8  6  7  6
 -4.465371941690e-09    8  6  7  7
 -2.879294143063e-09    8  6  8  1
 -2.094096074048e-03    8  6  8  2
 -1.671458714570e-03    8  6  8  3
  3.875537327091e-10    8  6  8  4
  1.193422496354e-10    8  6  8  5
  1.406399384112e-02    8  6  8  6
  4.115393480889e-09    8  7  1  1
  7.883221450850e-03    8  7  2  1
  4.528646450183e-09    8  7  2  2
 -9.878400427449e-03    8  7  3  1
 -2.468356956934e-10    8  7  3  2
  4.061393247040e-09    8  7  3  3
  2.846729376315e-10    8  7  4  1
  3.117996912763e-04    8  7  4  2
 -3.907535312233e-04    8  7  4  3
 -3.596452986559e-10    8  7  4  4
  6.930024268778e-11    8  7  5  1
  8.842622346553e-04    8  7  5  2
 -3.509278925554e-04    8  7  5  3
  1.027471107451e-10    8  7  5  4
  6.358950045822e-10    8  7  5  5
 -1.231953567676e-07    8  7  6  1
 -1.961487203534e-09    8  7  6  2
 -1.257307494786e-09    8  7  6  3
  8.033169591015e-08    8  7  6  4
  1.663933697197e-03    8  7  6  5
  3.064177016368e-09    8  7  6  6
  2.085876638269e-03    8  7  7  1
  1.888112738153e-09    8  7  7  2
 -1.913597448267e-09    8  7  7  3
  2.238700848953e-04    8  7  7  4
 -2.908749566526e-03    8  7  7  5
 -2.582546294195e-10    8  7  7  6
  3.419264919595e-09    8  7  7  7
  1.957757990037e-09    8  7  8  1
  1.671458714572e-03    8  7  8  2
 -2.094096074044e-03    8  7  8  3
 -2.511320951917e-10    8  7  8  4
  2.298837845863e-10    8  7  8  5
  1.406399384112e-02    8  7  8  7
  5.052967728632e-01    8  8  1  1
  3.564995529575e-10    8  8  2  1
  4.315943780983e-01    8  8  2  2
  3.113677571658e-11    8  8  3  1
  4.315943780983e-01    8  8  3  3
  2.899383888116e-02    8  8  4  1
 -5.568438515449e-10    8  8  4  2
 -5.340535055031e-11    8  8  4  3
  2.962274835703e-01    8  8  4  4
 -3.526407381233e-11    8  8  5  2
  1.637656165711e-10    8  8  5  3
  5.598702032262e-01    8  8  5  5
 -4.852194680629e-10    8  8  6  1
  5.848278554105e-03    8  8  6  2
  4.659749983636e-03    8  8  6  3
  4.005034223289e-10    8  8  6  4
  1.427713862080e-10    8  8  6  5
  5.110519658486e-01    8  8  6  6
  3.444828264282e-10    8  8  7  1
 -4.659749983613e-03    8  8  7  2
  5.848278554134e-03    8  8  7  3
 -3.031513836552e-10    8  8  7  4
  2.535554496994e-10    8  8  7  5
  5.110519658486e-01    8  8  7  7
 -6.373735854818e-02    8  8  8  1
  1.205518129742e-09    8  8  8  2
  1.122059307791e-10    8  8  8  3
 -5.710709775061e-02    8  8  8  4
 -3.083877685084e-09    8  8  8  6
  2.180031377228e-09    8  8  8  7
  6.293166694228e-01    8  8  8  8
 -1.273414991094e-01    9  1  1  1
 -6.076568651670e-10    9  1  2  1
 -1.156169433688e-01    9  1  2  2
 -7.709581598887e-11    9  1  3  1
 -1.156169433689e-01    9  1  3  3
 -5.943916517880e-03    9  1  4  1
  1.291306930087e-09    9  1  4  2
  1.114402313192e-10    9  1  4  3
 -7.600540503456e-03    9  1  4  4
 -2.145516338291e-11    9  1  5  2
  1.469771292321e-10    9  1  5  3
 -1.165882825445e-02    9  1  5  5
  9.173303685633e-10    9  1  6  1
  6.764262234778e-02    9  1  6  2
  5.398431319699e-02    9  1  6  3
 -8.507058697386e-10    9  1  6  4
 -3.570596136726e-11    9  1  6  5
 -8.861395005967e-02    9  1  6  6
 -6.526069902461e-10    9  1  7  1
 -5.398431319701e-02    9  1  7  2
  6.764262234775e-02    9  1  7  3
  5.941137407393e-10    9  1  7  4
 -8.117920703365e-11    9  1  7  5
 -8.861395005964e-02    9  1  7  7
 -6.853304698690e-02    9  1  8  1
 -4.496519722270e-09    9  1  8  2
 -3.786983767047e-10    9  1  8  3
 -2.278135920579e-03    9  1  8  4
  3.644250275281e-09    9  1  8  6
 -2.493972459302e-09    9  1  8  7
 -5.976904813400e-02    9  1  8  8
  1.211494703343e-01    9  1  9  1
 -7.116119501832e-09    9  2  1  1
 -3.612273476823e-03    9  2  2  1
 -6.114273145204e-09    9  2  2  2
  3.258505623016e-07    9  2  3  1
  1.682010138823e-11    9  2  3  2
 -6.666981843420e-09    9  2  3  3
  2.344634235856e-10    9  2  4  1
 -1.340125429647e-03    9  2  4  2
  1.436707348404e-08    9  2  4  3
 -1.217795370055e-09    9  2  4  4
 -1.204015515774e-11    9  2  5  1
  4.190681925714e-04    9  2  5  2
 -1.373955441933e-03    9  2  5  3
  7.611171180191e-11    9  2  5  4
  3.219549999795e-09    9  2  5  5
  7.861320361370e-03    9  2  6  1
  8.080558819957e-09    9  2  6  2
  5.514193761273e-09    9  2  6  3
 -9.169700967669e-04    9  2  6  4
 -8.381885193091e-04    9  2  6  5
 -5.597972154016e-09    9  2  6  6
 -6.274392971860e-03    9  2  7  1
 -6.368881410759e-09    9  2  7  2
  6.807254925980e-09    9  2  7  3
  7.317251764384e-04    9  2  7  4
 -2.114545867699e-03    9  2  7  5
  4.300874178743e-10    9  2  7  6
 -5.330685363510e-09    9  2  7  7
 -7.263536898231e-09    9  2  8  1
 -3.982054796156e-03    9  2  8  2
  3.229918095425e-07    9  2  8  3
 -1.356444160131e-09    9  2  8  4
  3.109083296704e-11    9  2  8  5
  3.069095398509e-03    9  2  8  6
 -2.449441113531e-03    9  2  8  7
 -1.414737506091e-09    9  2  8  8
  1.304926661291e-08    9  2  9  1
  1.615400213251e-02    9  2  9  2
 -6.301508303486e-10    9  3  1  1
 -3.258505586082e-07    9  3  2  1
 -5.855881582926e-10    9  3  2  2
 -3.612273476825e-03    9  3  3  1
  2.707684888664e-10    9  3  3  2
 -5.496929170760e-10    9  3  3  3
  3.695182328403e-11    9  3  4  1
 -1.436707379400e-08    9  3  4  2
 -1.340125429647e-03    9  3  4  3
 -1.536220313533e-10    9  3  4  4
  5.347093369285e-11    9  3  5  1
 -1.373955441933e-03    9  3  5  2
 -4.190681925720e-04    9  3  5  3
 -4.210250203630e-10    9  3  5  4
  3.239206315825e-10    9  3  5  5
  6.274392971857e-03    9  3  6  1
  1.054589859024e-09    9  3  6  2
  1.156875726730e-09    9  3  6  3
 -7.317251764391e-04    9  3  6  4
 -2.114545867699e-03    9  3  6  5
 -8.532205655461e-10    9  3  6  6
  7.861320361366e-03    9  3  7  1
  1.248239526171e-10    9  3  7  2
  2.118906297249e-10    9  3  7  3
 -9.169700967671e-04    9  3  7  4
  8.381885193086e-04    9  3  7  5
 -1.228717272866e-10    9  3  7  6
  1.913898095382e-11    9  3  7  7
 -6.447916540488e-10    9  3  8  1
 -3.229918074662e-07    9  3  8  2
 -3.982054796156e-03    9  3  8  3
 -1.350917311566e-10    9  3  8  4
 -9.444381967751e-11    9  3  8  5
  2.449441113529e-03    9  3  8  6
  3.069095398507e-03    9  3  8  7
 -1.044384789070e-10    9  3  8  8
  1.029751951141e-09    9  3  9  1
  1.615400213251e-02    9  3  9  3
 -3.040478196488e-02    9  4  1  1
 -2.107335847147e-11    9  4  2  1
 -2.725155859799e-02    9  4  2  2
 -3.805463053925e-11    9  4  3  1
 -2.725155859799e-02    9  4  3  3
 -2.554311006169e-03    9  4  4  1
 -3.396313974811e-11    9  4  4  2
  1.881754960680e-11    9  4  4  3
 -4.192328250756e-03    9  4  4  4
  2.051799509252e-10    9  4  5  2
 -1.137503891366e-09    9  4  5  3
 -2.309351151934e-02    9  4  5  5
  7.825857251759e-10    9  4  6  1
  3.366238583810e-03    9  4  6  2
  2.686803240610e-03    9  4  6  3
 -9.115469477176e-12    9  4  6  4
 -4.649640227304e-10    9  4  6  5
 -2.741071375050e-02    9  4  6  6
 -4.737793692006e-10    9  4  7  1
 -2.686803240611e-03    9  4  7  2
  3.366238583808e-03    9  4  7  3
  6.720910934335e-11    9  4  7  4
 -9.283678159725e-10    9  4  7  5
 -2.741071375049e-02    9  4  7  7
 -3.008592531221e-03    9  4  8  1
  9.274749903190e-11    9  4  8  2
  1.065042062834e-11    9  4  8  3
  4.790356030370e-03    9  4  8  4
  1.564302447768e-10    9  4  8  6
 -1.128403205263e-10    9  4  8  7
 -3.010145152074e-02    9  4  8  8
  6.377855391613e-03    9  4  9  1
  6.389102515752e-11    9  4  9  2
 -1.780615535562e-11    9  4  9  3
  3.120160437696e-03    9  4  9  4
  1.125261168727e-11    9  5  2  1
  4.180692852592e-04    9  5  2  2
 -1.898950914539e-10    9  5  3  1
 -1.368466327572e-03    9  5  3  2
 -4.180692852602e-04    9  5  3  3
  7.048262831653e-11    9  5  4  2
 -2.847929936634e-10    9  5  4  3
 -9.913731716034e-04    9  5  5  1
  1.897005586024e-10    9  5  5  2
 -1.649703027173e-03    9  5  5  4
  1.774832702717e-11    9  5  6  1
 -4.102772982952e-04    9  5  6  2
 -1.036601574208e-03    9  5  6  3
 -1.209545329608e-10    9  5  6  4
  1.438521752690e-10    9  5  6  5
 -1.691144508705e-03    9  5  6  6
  1.176957130813e-12    9  5  7  1
 -1.036601574209e-03    9  5  7  2
  4.102772982960e-04    9  5  7  3
 -3.137332069467e-10    9  5  7  4
 -8.054020118254e-11    9  5  7  5
 -9.697485316206e-04    9  5  7  6
  1.691144508707e-03    9  5  7  7
  9.521785376856e-11    9  5  8  2
 -4.281753234234e-10    9  5  8  3
  3.178998028421e-03    9  5  8  5
 -2.643156250318e-10    9  5  8  6
 -5.184952083206e-10    9  5  8  7
  5.367424978181e-11    9  5  9  2
 -3.352702217364e-10    9  5  9  3
  1.199411471927e-03    9  5  9  5
  2.023227862984e-08    9  6  1  1
  1.174359756283e-02    9  6  2  1
  2.137740749834e-08    9  6  2  2
  9.372742130086e-03    9  6  3  1
  7.308160411337e-10    9  6  3  2
  1.986968485710e-08    9  6  3  3
  1.566080796170e-09    9  6  4  1
 -6.476276810142e-04    9  6  4  2
 -5.167401806081e-04    9  6  4  3
 -1.569080643662e-09    9  6  4  4
  9.792152933429e-12    9  6  5  1
 -6.478979996194e-04    9  6  5  2
 -1.634378317030e-03    9  6  5  3
 -3.487660669666e-10    9  6  5  4
  3.756422771846e-09    9  6  5  5
 -7.407280848698e-03    9  6  6  1
 -1.003882372857e-08    9  6  6  2
 -7.307853398473e-09    9  6  6  3
 -2.290241452713e-03    9  6  6  4
 -1.775034553034e-03    9  6  6  5
  1.684473265032e-08    9  6  6  6
 -3.274986686246e-07    9  6  7  1
  7.176802716736e-09    9  6  7  2
 -8.122520288787e-09    9  6  7  3
  8.611091592619e-08    9  6  7  4
 -1.016430701934e-03    9  6  7  5
 -5.333074475591e-10    9  6  7  6
  1.521358671263e-08    9  6  7  7
  8.861269708957e-09    9  6  8  1
  6.281947895646e-03    9  6  8  2
  5.013704652520e-03    9  6  8  3
 -1.256621573669e-09    9  6  8  4
 -1.641395266254e-11    9  6  8  5
 -5.051168266760e-03    9  6  8  6
 -6.143666854509e-08    9  6  8  7
  1.057959810690e-08    9  6  8  8
 -1.224506329224e-08    9  6  9  1
 -5.574165279019e-03    9  6  9  2
 -4.448606391871e-03    9  6  9  3
 -1.144693734975e-09    9  6  9  4
 -2.573537195581e-10    9  6  9  5
  1.428037397935e-02    9  6  9  6
 -1.375617557674e-08    9  7  1  1
 -9.372742130090e-03    9  7  2  1
 -1.467630061582e-08    9  7  2  2
  1.174359756282e-02    9  7  3  1
  7.654575013599e-10    9  7  3  2
 -1.321508720057e-08    9  7  3  3
 -1.019089052046e-09    9  7  4  1
  5.167401806078e-04    9  7  4  2
 -6.476276810142e-04    9  7  4  3
  9.092499676531e-10    9  7  4  4
  1.813355783394e-11    9  7  5  1
 -1.634378317030e-03    9  7  5  2
  6.478979996192e-04    9  7  5  3
 -6.798871616746e-10    9  7  5  4
 -2.640279293228e-09    9  7  5  5
  3.274986774487e-07    9  7  6  1
  6.230095407127e-09    9  7  6  2
  3.978222643118e-09    9  7  6  3
 -8.611091649282e-08    9  7  6  4
 -1.016430701934e-03    9  7  6  5
 -1.033737807764e-08    9  7  6  6
 -7.407280848694e-03    9  7  7  1