#INFO: **** input file is /projects/bamu3429/BENCHMARK/fresh_atoms/MRPT/vtz/monoxides/TiO/mrpt.py ****
import json
from pyscf import gto,scf,mcscf, fci, lo, ci, cc
from pyscf.scf import ROHF, UHF,ROKS
import numpy as np
import pandas as pd

# THIS IS WERE IT STARTS ====================================

df=json.load(open("../../../trail.json"))

spins={'ScO':1, 'TiO':2, 'VO':3, 'CrO':4, 'MnO':5, 'FeO':4, 'CuO':1}

nd={'Sc':(1,0), 'Ti':(2,0), 'V':(3,0), 'Cr':(5,0), 'Mn':(5,0), 'Fe':(5,1), 'Cu':(5,4)}

cas={'Sc':3, 'Ti':4, 'V':5, 'Cr':6, 'Mn':7, 'Fe':8, 'Cu':11}

re={'ScO':1.668, 'TiO':1.623, 'VO':1.591, 'CrO':1.621, 'MnO':1.648, 'FeO':1.616, 'CuO':1.725}

datacsv={}
for nm in ['basis','charge','method','molecule','pseudopotential',
           'totalenergy','totalenergy-stocherr','totalenergy-syserr']:
  datacsv[nm]=[]

basis='vtz'
element='Ti'

mol=gto.Mole()
mol.ecp={}
mol.basis={}
for el in [element,'O']:
  mol.ecp[el]=gto.basis.parse_ecp(df[el]['ecp'])
  mol.basis[el]=gto.basis.parse(df[el][basis])
mol.charge=0
mol.spin=spins[element+'O']
mol.build(atom="%s 0. 0. 0.; O 0. 0. %g"%(element,re[element+'O']),verbose=4)

m=ROHF(mol)
m.level_shift=1000.0
dm=m.from_chk("../../../../HF/monoxides/"+element+basis+"0.chk")
hf=m.kernel(dm)
m.analyze()

from pyscf.shciscf import shci
mc = shci.SHCISCF(m, 9, 4+cas[element])
#mc.fcisolver.conv_tol = 1e-14
mc.fcisolver.mpiprefix="mpirun -np 28"
mc.fcisolver.num_thrds=12
mc.verbose = 4
cas=mc.kernel()[0]
 
from pyscf.icmpspt import icmpspt
pt=icmpspt.icmpspt(mc,rdmM=500, PTM=1000,\
                          pttype="MRLCC",\
                          third_order=True,\
                          fully_ic=True,\
                          do_dm4=True)

datacsv['basis'].append(basis)
datacsv['charge'].append(0)
datacsv['method'].append('MRPT')
datacsv['molecule'].append(element)
datacsv['pseudopotential'].append('trail')
datacsv['totalenergy'].append(cas+pt)
datacsv['totalenergy-stocherr'].append(0.0)
datacsv['totalenergy-syserr'].append(0.0)
pd.DataFrame(datacsv).to_csv(element+".csv",index=False)

#INFO: ******************** input file end ********************


System: ('Linux', 'bnode0304.rc.int.colorado.edu', '3.10.0-514.41.1.el7.x86_64', '#1 SMP Wed Jan 17 10:26:16 EST 2018', 'x86_64', 'x86_64')  Threads 28
Python 2.7.11 (default, Mar 22 2016, 01:42:54) 
[GCC Intel(R) C++ gcc 4.8 mode]
numpy 1.11.1  scipy 0.17.1
Date: Thu Mar 29 15:22:42 2018
PySCF version 1.4
PySCF path  /projects/bamu3429/softwares/pyscf_uptodate/pyscf
GIT ORIG_HEAD e2292e6edec2b0e0024c21b81de03db1d7bd4121
GIT HEAD      ref: refs/heads/master
GIT master branch  f3591ef22170896a4cdc2aadaa6f5da388ffcadb

[INPUT] VERBOSE 4
[INPUT] num atoms = 2
[INPUT] num electrons = 18
[INPUT] charge = 0
[INPUT] spin (= nelec alpha-beta = 2S) = 2
[INPUT] symmetry False subgroup None
[INPUT]  1 Ti     0.000000000000   0.000000000000   0.000000000000 AA    0.000000000000   0.000000000000   0.000000000000 Bohr
[INPUT]  2 O      0.000000000000   0.000000000000   1.623000000000 AA    0.000000000000   0.000000000000   3.067025500169 Bohr
[INPUT] ---------------- BASIS SET ---------------- 
[INPUT] l, kappa, [nprim/nctr], expnt,             c_1 c_2 ...
[INPUT] O
[INPUT] 0    0    [10   /1   ]  57.663349         -0.002794
                                35.726816         0.023976
                                22.453757         -0.115974
                                14.732301         0.288033
                                9.739917          -0.274786
                                5.042008          -0.083789
                                2.157818          0.063778
                                1.002916          0.410182
                                0.421839          0.504044
                                0.173041          0.172152
[INPUT] 0    0    [1    /1   ]  1.849096             1
[INPUT] 0    0    [1    /1   ]  0.255434             1
[INPUT] 0    0    [1    /1   ]  0.141483             1
[INPUT] 1    0    [10   /1   ]  52.47406          -0.000522
                                32.138432         0.004857
                                19.458579         -0.027749
                                11.839344         0.074258
                                7.91003           0.014369
                                3.670858          0.153479
                                1.53966           0.283685
                                0.647119          0.358201
                                0.267853          0.29559
                                0.107198          0.104889
[INPUT] 1    0    [1    /1   ]  0.622175             1
[INPUT] 1    0    [1    /1   ]  0.193391             1
[INPUT] 1    0    [1    /1   ]  0.052779             1
[INPUT] 2    0    [1    /1   ]  2.324251             1
[INPUT] 2    0    [1    /1   ]  0.656935             1
[INPUT] 2    0    [1    /1   ]  0.2072               1
[INPUT] 3    0    [1    /1   ]  1.423472             1
[INPUT] 3    0    [1    /1   ]  0.48761              1
[INPUT] Ti
[INPUT] 0    0    [12   /1   ]  37.13946663       0.002411
                                11.66061728       -0.575963
                                8.9751153         2.645948
                                7.67011905        -2.362876
                                3.44923714        -0.059842
                                1.58705441        0.244002
                                0.95387432        0.58593
                                0.47300537        0.378609
                                0.2203041         0.031099
                                0.10349534        0.004602
                                0.04822069        0.000609
                                0.0226639         0.001044
[INPUT] 0    0    [12   /1   ]  37.13946663       -0.000363
                                11.66061728       0.129591
                                8.9751153         -0.625086
                                7.67011905        0.572499
                                3.44923714        0.016652
                                1.58705441        -0.073052
                                0.95387432        -0.203234
                                0.47300537        -0.251131
                                0.2203041         -0.044619
                                0.10349534        0.38905
                                0.04822069        0.591401
                                0.0226639         0.208165
[INPUT] 0    0    [12   /1   ]  37.13946663       -0.001048
                                11.66061728       0.513626
                                8.9751153         -2.6299
                                7.67011905        2.506927
                                3.44923714        0.034363
                                1.58705441        -1.199876
                                0.95387432        -0.360111
                                0.47300537        0.526538
                                0.2203041         0.906119
                                0.10349534        0.354604
                                0.04822069        -0.569496
                                0.0226639         -0.388471
[INPUT] 0    0    [12   /1   ]  37.13946663       -0.002126
                                11.66061728       0.777822
                                8.9751153         -4.101997
                                7.67011905        4.037004
                                3.44923714        -0.301669
                                1.58705441        -2.544268
                                0.95387432        1.067498
                                0.47300537        2.188092
                                0.2203041         -0.737717
                                0.10349534        -1.595594
                                0.04822069        0.519723
                                0.0226639         0.702092
[INPUT] 0    0    [1    /1   ]  0.0226639            1
[INPUT] 0    0    [1    /1   ]  0.01065211           1
[INPUT] 1    0    [12   /1   ]  44.38520603       0.000557
                                23.85822456       -0.004857
                                12.73507149       0.027448
                                6.00842867        -0.150306
                                3.96301478        0.092203
                                2.13751474        0.210744
                                1.20712576        0.397756
                                0.62000194        0.354359
                                0.30900057        0.130823
                                0.12918293        0.012952
                                0.05400711        -0.000125
                                0.02257859        0.000245
[INPUT] 1    0    [12   /1   ]  44.38520603       -7.7e-05
                                23.85822456       0.000906
                                12.73507149       -0.006126
                                6.00842867        0.038285
                                3.96301478        -0.027356
                                2.13751474        -0.059665
                                1.20712576        -0.115513
                                0.62000194        -0.130421
                                0.30900057        0.025358
                                0.12918293        0.394962
                                0.05400711        0.54831
                                0.02257859        0.169017
[INPUT] 1    0    [12   /1   ]  44.38520603       0.000257
                                23.85822456       -0.004273
                                12.73507149       0.034307
                                6.00842867        -0.26758
                                3.96301478        0.2157
                                2.13751474        0.80689
                                1.20712576        0.194864
                                0.62000194        -0.88026
                                0.30900057        -0.530792
                                0.12918293        0.664296
                                0.05400711        0.379472
                                0.02257859        -0.003174
[INPUT] 1    0    [12   /1   ]  44.38520603       0.000117
                                23.85822456       -0.005201
                                12.73507149       0.057541
                                6.00842867        -0.690259
                                3.96301478        1.21697
                                2.13751474        1.017989
                                1.20712576        -1.674556
                                0.62000194        -0.722613
                                0.30900057        1.629515
                                0.12918293        -0.172012
                                0.05400711        -0.594627
                                0.02257859        0.019229
[INPUT] 1    0    [1    /1   ]  0.02257859           1
[INPUT] 1    0    [1    /1   ]  0.00943936           1
[INPUT] 2    0    [10   /1   ]  29.31465998       -0.000519
                                13.63067536       -0.007186
                                8.04907964        0.095441
                                3.25682476        0.170565
                                1.474054          0.27882
                                0.66141289        0.324798
                                0.29673638        0.280135
                                0.13456087        0.172066
                                0.06095666        0.058237
                                0.02784531        0.004588
[INPUT] 2    0    [10   /1   ]  29.31465998       0.002823
                                13.63067536       -0.006527
                                8.04907964        -0.061261
                                3.25682476        -0.257858
                                1.474054          -0.489583
                                0.66141289        0.014563
                                0.29673638        0.349211
                                0.13456087        0.382975
                                0.06095666        0.175115
                                0.02784531        0.017645
[INPUT] 2    0    [10   /1   ]  29.31465998       0.007279
                                13.63067536       -0.0349
                                8.04907964        0.005127
                                3.25682476        -0.547554
                                1.474054          -0.249327
                                0.66141289        0.883201
                                0.29673638        0.185008
                                0.13456087        -0.439752
                                0.06095666        -0.35135
                                0.02784531        -0.032892
[INPUT] 2    0    [1    /1   ]  0.02784531           1
[INPUT] 2    0    [1    /1   ]  0.01271987           1
[INPUT] 3    0    [1    /1   ]  2.226593             1
[INPUT] 3    0    [1    /1   ]  0.630802             1
[INPUT] 3    0    [1    /1   ]  0.17870852           1
[INPUT] 4    0    [1    /1   ]  2.043434             1
[INPUT] 4    0    [1    /1   ]  0.57891237           1
nuclear repulsion = 23.4755139779667
number of shells = 35
number of NR pGTOs = 480
number of NR cGTOs = 133
basis = {'O': [[0, [57.663349, -0.002794], [35.726816, 0.023976], [22.453757, -0.115974], [14.732301, 0.288033], [9.739917, -0.274786], [5.042008, -0.083789], [2.157818, 0.063778], [1.002916, 0.410182], [0.421839, 0.504044], [0.173041, 0.172152]], [0, [1.849096, 1.0]], [0, [0.255434, 1.0]], [0, [0.141483, 1.0]], [1, [52.47406, -0.000522], [32.138432, 0.004857], [19.458579, -0.027749], [11.839344, 0.074258], [7.91003, 0.014369], [3.670858, 0.153479], [1.53966, 0.283685], [0.647119, 0.358201], [0.267853, 0.29559], [0.107198, 0.104889]], [1, [0.622175, 1.0]], [1, [0.193391, 1.0]], [1, [0.052779, 1.0]], [2, [2.324251, 1.0]], [2, [0.656935, 1.0]], [2, [0.2072, 1.0]], [3, [1.423472, 1.0]], [3, [0.48761, 1.0]]], 'Ti': [[0, [37.13946663, 0.002411], [11.66061728, -0.575963], [8.9751153, 2.645948], [7.67011905, -2.362876], [3.44923714, -0.059842], [1.58705441, 0.244002], [0.95387432, 0.58593], [0.47300537, 0.378609], [0.2203041, 0.031099], [0.10349534, 0.004602], [0.04822069, 0.000609], [0.0226639, 0.001044]], [0, [37.13946663, -0.000363], [11.66061728, 0.129591], [8.9751153, -0.625086], [7.67011905, 0.572499], [3.44923714, 0.016652], [1.58705441, -0.073052], [0.95387432, -0.203234], [0.47300537, -0.251131], [0.2203041, -0.044619], [0.10349534, 0.38905], [0.04822069, 0.591401], [0.0226639, 0.208165]], [0, [37.13946663, -0.001048], [11.66061728, 0.513626], [8.9751153, -2.6299], [7.67011905, 2.506927], [3.44923714, 0.034363], [1.58705441, -1.199876], [0.95387432, -0.360111], [0.47300537, 0.526538], [0.2203041, 0.906119], [0.10349534, 0.354604], [0.04822069, -0.569496], [0.0226639, -0.388471]], [0, [37.13946663, -0.002126], [11.66061728, 0.777822], [8.9751153, -4.101997], [7.67011905, 4.037004], [3.44923714, -0.301669], [1.58705441, -2.544268], [0.95387432, 1.067498], [0.47300537, 2.188092], [0.2203041, -0.737717], [0.10349534, -1.595594], [0.04822069, 0.519723], [0.0226639, 0.702092]], [0, [0.0226639, 1.0]], [0, [0.01065211, 1.0]], [1, [44.38520603, 0.000557], [23.85822456, -0.004857], [12.73507149, 0.027448], [6.00842867, -0.150306], [3.96301478, 0.092203], [2.13751474, 0.210744], [1.20712576, 0.397756], [0.62000194, 0.354359], [0.30900057, 0.130823], [0.12918293, 0.012952], [0.05400711, -0.000125], [0.02257859, 0.000245]], [1, [44.38520603, -7.7e-05], [23.85822456, 0.000906], [12.73507149, -0.006126], [6.00842867, 0.038285], [3.96301478, -0.027356], [2.13751474, -0.059665], [1.20712576, -0.115513], [0.62000194, -0.130421], [0.30900057, 0.025358], [0.12918293, 0.394962], [0.05400711, 0.54831], [0.02257859, 0.169017]], [1, [44.38520603, 0.000257], [23.85822456, -0.004273], [12.73507149, 0.034307], [6.00842867, -0.26758], [3.96301478, 0.2157], [2.13751474, 0.80689], [1.20712576, 0.194864], [0.62000194, -0.88026], [0.30900057, -0.530792], [0.12918293, 0.664296], [0.05400711, 0.379472], [0.02257859, -0.003174]], [1, [44.38520603, 0.000117], [23.85822456, -0.005201], [12.73507149, 0.057541], [6.00842867, -0.690259], [3.96301478, 1.21697], [2.13751474, 1.017989], [1.20712576, -1.674556], [0.62000194, -0.722613], [0.30900057, 1.629515], [0.12918293, -0.172012], [0.05400711, -0.594627], [0.02257859, 0.019229]], [1, [0.02257859, 1.0]], [1, [0.00943936, 1.0]], [2, [29.31465998, -0.000519], [13.63067536, -0.007186], [8.04907964, 0.095441], [3.25682476, 0.170565], [1.474054, 0.27882], [0.66141289, 0.324798], [0.29673638, 0.280135], [0.13456087, 0.172066], [0.06095666, 0.058237], [0.02784531, 0.004588]], [2, [29.31465998, 0.002823], [13.63067536, -0.006527], [8.04907964, -0.061261], [3.25682476, -0.257858], [1.474054, -0.489583], [0.66141289, 0.014563], [0.29673638, 0.349211], [0.13456087, 0.382975], [0.06095666, 0.175115], [0.02784531, 0.017645]], [2, [29.31465998, 0.007279], [13.63067536, -0.0349], [8.04907964, 0.005127], [3.25682476, -0.547554], [1.474054, -0.249327], [0.66141289, 0.883201], [0.29673638, 0.185008], [0.13456087, -0.439752], [0.06095666, -0.35135], [0.02784531, -0.032892]], [2, [0.02784531, 1.0]], [2, [0.01271987, 1.0]], [3, [2.226593, 1.0]], [3, [0.630802, 1.0]], [3, [0.17870852, 1.0]], [4, [2.043434, 1.0]], [4, [0.57891237, 1.0]]]}
ecp = {'O': [2, [[-1, [[], [[10.27717748, 6.0]], [[15.99566749, 1232.50197768], [10.46901775, -696.47008301], [14.6384801, -2654.22657081], [12.57591181, 2101.67732548]], [[7.77739102, 61.66306486]]]], [0, [[], [], [[12.39426073, -656683.37638839], [12.38126171, 657858.57667068], [8.57671033, 511.50098405], [9.89256508, -2579.54665641], [28.05641604, -57.68129584], [17.24753607, 970.30940152]], []]], [1, [[], [], [[14.78918914, -363027.24258186], [14.82014018, 361852.52314043], [22.89622221, -1300.20069256], [8.51331893, -181.96869573], [11.48609758, 2194.87589959], [27.22017524, 451.19906206]], []]]]], 'Ti': [10, [[-1, [[], [[8.52499277, 12.0]], [[15.2433413, 2048.39512837], [9.82605516, -812.71625987], [13.73638629, -6663.62886396], [12.6545051, 5396.93874773]], [[7.54790686, 102.29991323]]]], [0, [[], [], [[6.07854372, -5355.67455847], [6.60870356, 4802.76911085], [5.40803832, 1304.66429039], [10.43037595, -1133.61681175], [18.40796253, -258.77562194], [15.384288, 672.53886697]], []]], [1, [[], [], [[9.60319864, 56981.17339652], [9.66270511, -57002.97844363], [15.06515908, 1335.72576887], [16.36599976, -813.49634683], [7.86420177, -720.45341501], [10.25452653, 239.69852194]], []]], [2, [[], [], [[10.56650824, -4262.72074057], [2.71368379, -1.34753473], [9.33780917, 1569.82864567], [31.60560687, -0.4538755], [12.28030141, 5034.44351544], [13.3677017, -2350.67846378]], []]]]]}
CPU time:         3.58


******** <class 'pyscf.scf.rohf.ROHF'> flags ********
method = ROHF
initial guess = minao
damping factor = 0
level shift factor = 1000.0
DIIS = <class 'pyscf.scf.diis.CDIIS'>
DIIS start cycle = 1
DIIS space = 8
SCF tol = 1e-09
SCF gradient tol = None
max. SCF cycles = 50
direct_scf = True
direct_scf_tol = 1e-13
chkfile to save SCF result = /projects/bamu3429/BENCHMARK/fresh_atoms/MRPT/vtz/monoxides/TiO/tmpNBE6Xh
max_memory 4000 MB (current use 140 MB)
num. doubly occ = 8  num. singly occ = 2
Set gradient conv threshold to 3.16228e-05
init E= -73.2754963676265
  HOMO = 499.881094199174  LUMO = 1000.01262933239
cycle= 1 E= -73.2754963676266  delta_E= -4.26e-14  |g|= 9.49e-06  |ddm|= 4.13e-08
  HOMO = -0.118905798153309  LUMO = 0.0126293323444323
Extra cycle  E= -73.275496367691  delta_E= -6.44e-11  |g|= 2.86e-06  |ddm|= 2.25e-05
converged SCF energy = -73.275496367691
**** MO energy ****
                Roothaan           | alpha              | beta
MO #1   energy= -2.97009958867273  | -3.00924110299379  | -2.93095807061365  occ= 2
MO #2   energy= -1.88924963644866  | -1.90358982880905  | -1.87490943876273  occ= 2
MO #3   energy= -1.8574936818785   | -1.91893393981078  | -1.79605342394621  occ= 2
MO #4   energy= -1.8574936818785   | -1.91893393981079  | -1.79605342394621  occ= 2
MO #5   energy= -1.15392616703452  | -1.15607900152465  | -1.15177332748871  occ= 2
MO #6   energy= -0.459539741619976 | -0.464729204627613 | -0.454350222318498 occ= 2
MO #7   energy= -0.443141268338036 | -0.445812648707472 | -0.440469887968602 occ= 2
MO #8   energy= -0.443141268338035 | -0.445812648707469 | -0.4404698879686   occ= 2
MO #9   energy= -0.123728107586971 | -0.26554232182655  | 0.0180859365701564 occ= 1
MO #10  energy= -0.118905798153309 | -0.45736262910602  | 0.219551211241356  occ= 1
MO #11  energy= 0.0126293323444323 | 0.00717386456603855 | 0.0180848001228274 occ= 0
MO #12  energy= 0.0126293323444341 | 0.00717386456603801 | 0.018084800122828  occ= 0
MO #13  energy= 0.0155143183478826 | 0.0137019267817209 | 0.0173266164677456 occ= 0
MO #14  energy= 0.0253248313136641 | 0.0242833601698451 | 0.0263663600345201 occ= 0
MO #15  energy= 0.0374577809061146 | 0.0372364529950492 | 0.0376791088171825 occ= 0
MO #16  energy= 0.0378948999530666 | 0.0377351125618634 | 0.0380546870123815 occ= 0
MO #17  energy= 0.040772765037499  | 0.0382971210826595 | 0.0432484089923407 occ= 0
MO #18  energy= 0.040772765037501  | 0.038297121082657  | 0.0432484089923458 occ= 0
MO #19  energy= 0.0436708674538771 | 0.0429353159775997 | 0.0444064114192658 occ= 0
MO #20  energy= 0.0445034885157873 | 0.0331238084329155 | 0.0558831685986607 occ= 0
MO #21  energy= 0.0445034885157882 | 0.0331238084329175 | 0.0558831685986594 occ= 0
MO #22  energy= 0.0618467767568032 | 0.0489509704732928 | 0.0747425318334686 occ= 0
MO #23  energy= 0.0954879673788752 | 0.0881592683792237 | 0.102816666378531  occ= 0
MO #24  energy= 0.113163386912924  | 0.109874484616908  | 0.11645228920894   occ= 0
MO #25  energy= 0.113163386912927  | 0.109874484616911  | 0.116452289208946  occ= 0
MO #26  energy= 0.117603281171533  | 0.11152125314143   | 0.12368537275634   occ= 0
MO #27  energy= 0.119025656433785  | 0.114616716847198  | 0.123434611466422  occ= 0
MO #28  energy= 0.139093930289527  | 0.132706532111411  | 0.145481347867168  occ= 0
MO #29  energy= 0.157024250245525  | 0.142622099078769  | 0.17142640141228   occ= 0
MO #30  energy= 0.157024250245526  | 0.14262209907877   | 0.17142640141228   occ= 0
MO #31  energy= 0.161193782846249  | 0.151578226308928  | 0.170809345388901  occ= 0
MO #32  energy= 0.170787929490322  | 0.162267633418359  | 0.179308225562286  occ= 0
MO #33  energy= 0.239020226016874  | 0.224162589732636  | 0.253877862301112  occ= 0
MO #34  energy= 0.239020226016877  | 0.224162589732638  | 0.253877862301117  occ= 0
MO #35  energy= 0.27633041291115   | 0.273538430657548  | 0.279122395164751  occ= 0
MO #36  energy= 0.27633041291115   | 0.27353843065755   | 0.27912239516475   occ= 0
MO #37  energy= 0.300101049961526  | 0.296128417784427  | 0.304073720569668  occ= 0
MO #38  energy= 0.423218351056655  | 0.416026385793384  | 0.430410373180591  occ= 0
MO #39  energy= 0.566352979486957  | 0.55240789160485   | 0.58029811213327   occ= 0
MO #40  energy= 0.614529103223041  | 0.584841390909704  | 0.644216727760317  occ= 0
MO #41  energy= 0.617426784139291  | 0.602047082763935  | 0.632806485514646  occ= 0
MO #42  energy= 0.617426784139292  | 0.602047082763937  | 0.632806485514648  occ= 0
MO #43  energy= 0.619117985259917  | 0.612749066270865  | 0.62548690424897   occ= 0
MO #44  energy= 0.619402093935005  | 0.597330666376023  | 0.641473454477921  occ= 0
MO #45  energy= 0.634125049513843  | 0.619680291173369  | 0.64856980785432   occ= 0
MO #46  energy= 0.634125049513844  | 0.619680291173369  | 0.64856980785432   occ= 0
MO #47  energy= 0.664227330123613  | 0.647750480663462  | 0.680704106202876  occ= 0
MO #48  energy= 0.666102288837309  | 0.655711056012698  | 0.676493521661919  occ= 0
MO #49  energy= 0.751307878316408  | 0.744157899207113  | 0.758457879244206  occ= 0
MO #50  energy= 0.864691607383437  | 0.862107397767723  | 0.867275816999155  occ= 0
MO #51  energy= 0.864691607383439  | 0.862107397767721  | 0.867275816999156  occ= 0
MO #52  energy= 0.915711401224083  | 0.907703123837388  | 0.923719684204548  occ= 0
MO #53  energy= 0.915921275151214  | 0.913100514390182  | 0.918742043548752  occ= 0
MO #54  energy= 0.919415164017845  | 0.915930532326866  | 0.922899795708825  occ= 0
MO #55  energy= 0.947452138878472  | 0.944687467669146  | 0.9502168100878    occ= 0
MO #56  energy= 0.947452138878478  | 0.944687467669153  | 0.950216810087805  occ= 0
MO #57  energy= 1.12155947557515   | 1.10726338371876   | 1.13585556743155   occ= 0
MO #58  energy= 1.12155947557515   | 1.10726338371875   | 1.13585556743156   occ= 0
MO #59  energy= 1.40236174305356   | 1.39566233018324   | 1.40906115948103   occ= 0
MO #60  energy= 1.60068765142894   | 1.59591822549393   | 1.60545707919348   occ= 0
MO #61  energy= 1.73467730726559   | 1.72521327754614   | 1.74414133698505   occ= 0
MO #62  energy= 1.73467730726561   | 1.72521327754615   | 1.74414133698506   occ= 0
MO #63  energy= 1.94648899913974   | 1.93413540595322   | 1.95884259540553   occ= 0
MO #64  energy= 1.95022413072739   | 1.94818528900879   | 1.95226297244598   occ= 0
MO #65  energy= 1.99864508969632   | 1.99086590158156   | 2.00642427781106   occ= 0
MO #66  energy= 1.99864508969632   | 1.99086590158157   | 2.00642427781107   occ= 0
MO #67  energy= 2.05452966622281   | 2.05256476038745   | 2.05649457205817   occ= 0
MO #68  energy= 2.05452966622281   | 2.05256476038745   | 2.05649457205817   occ= 0
MO #69  energy= 2.14129034336019   | 2.13748981367155   | 2.14509087291553   occ= 0
MO #70  energy= 2.14472853412549   | 2.11110677389108   | 2.1783502943599    occ= 0
MO #71  energy= 2.14472853412549   | 2.11110677389108   | 2.17835029435991   occ= 0
MO #72  energy= 2.22695324955718   | 2.21867494319261   | 2.23523155618213   occ= 0
MO #73  energy= 2.29997172746881   | 2.28436427406002   | 2.31557916562824   occ= 0
MO #74  energy= 2.30432287670008   | 2.30148097056608   | 2.30716478283409   occ= 0
MO #75  energy= 2.36426673427413   | 2.35945776636607   | 2.36907570218219   occ= 0
MO #76  energy= 2.36426673427414   | 2.35945776636608   | 2.3690757021822    occ= 0
MO #77  energy= 2.38884903224978   | 2.38315361407413   | 2.39454444328668   occ= 0
MO #78  energy= 2.38972011555448   | 2.3881967792437    | 2.39124345186525   occ= 0
MO #79  energy= 2.48515294479285   | 2.47981504292542   | 2.49049084804699   occ= 0
MO #80  energy= 2.51050231551741   | 2.5028437446184    | 2.51816088641641   occ= 0
MO #81  energy= 2.51050231551742   | 2.50284374461841   | 2.51816088641643   occ= 0
MO #82  energy= 2.60287912896352   | 2.58612427221955   | 2.6196339865507    occ= 0
MO #83  energy= 2.60290259309506   | 2.58605927823879   | 2.61974590795133   occ= 0
MO #84  energy= 2.60620021442938   | 2.60354531163049   | 2.60885511719377   occ= 0
MO #85  energy= 2.72014235585941   | 2.71054943430767   | 2.72973527741114   occ= 0
MO #86  energy= 2.72014235585942   | 2.71054943430768   | 2.72973527741115   occ= 0
MO #87  energy= 2.72496367116911   | 2.67242611315528   | 2.7775012123409    occ= 0
MO #88  energy= 2.74740703201387   | 2.73971294613789   | 2.75510111788985   occ= 0
MO #89  energy= 3.04942196172968   | 3.04322063878018   | 3.05562328467916   occ= 0
MO #90  energy= 3.04942196172968   | 3.04322063878019   | 3.05562328467918   occ= 0
MO #91  energy= 3.1622178750124    | 3.15942574929917   | 3.16501000072562   occ= 0
MO #92  energy= 3.16336770661068   | 3.15334557885787   | 3.17338982731275   occ= 0
MO #93  energy= 3.2460900058815    | 3.23907939672793   | 3.25310061499166   occ= 0
MO #94  energy= 3.32647919424774   | 3.31176294058463   | 3.34119544698439   occ= 0
MO #95  energy= 3.46903970656639   | 3.46563877298259   | 3.47244064015019   occ= 0
MO #96  energy= 3.46903970656642   | 3.46563877298262   | 3.47244064015022   occ= 0
MO #97  energy= 3.60554415238656   | 3.60209930729819   | 3.60898899985753   occ= 0
MO #98  energy= 4.17915646186866   | 4.17666521331404   | 4.18164771042328   occ= 0
MO #99  energy= 4.17915646186866   | 4.17666521331403   | 4.18164771042327   occ= 0
MO #100 energy= 5.38008257260686   | 5.37822295087548   | 5.38194219429063   occ= 0
MO #101 energy= 5.95589818233884   | 5.95060613672157   | 5.96119022778421   occ= 0
MO #102 energy= 6.07576196234296   | 6.06094522999655   | 6.0905786946894    occ= 0
MO #103 energy= 6.07576196234296   | 6.06094522999654   | 6.09057869468939   occ= 0
MO #104 energy= 6.51226147164427   | 6.51215788877172   | 6.51236505451682   occ= 0
MO #105 energy= 6.51226147164427   | 6.51215788877171   | 6.51236505451681   occ= 0
MO #106 energy= 6.59698745059227   | 6.59683776811811   | 6.59713713306644   occ= 0
MO #107 energy= 6.59723200013326   | 6.5969374055598    | 6.59752659470397   occ= 0
MO #108 energy= 6.69101380653508   | 6.68327298921156   | 6.69875462386997   occ= 0
MO #109 energy= 6.72983073449227   | 6.72563031280378   | 6.73403115618073   occ= 0
MO #110 energy= 6.72983073449227   | 6.72563031280379   | 6.73403115618073   occ= 0
MO #111 energy= 6.78030848378373   | 6.74302377503986   | 6.81759319252762   occ= 0
MO #112 energy= 6.78030848378373   | 6.74302377503986   | 6.81759319252762   occ= 0
MO #113 energy= 6.81077139652049   | 6.78182634336953   | 6.83971644970015   occ= 0
MO #114 energy= 6.81440896930559   | 6.81003118061675   | 6.81878675799444   occ= 0
MO #115 energy= 7.01632483776423   | 7.01035918237107   | 7.02229049315737   occ= 0
MO #116 energy= 7.01632483776423   | 7.01035918237108   | 7.02229049315738   occ= 0
MO #117 energy= 7.13684043184995   | 7.13640794176618   | 7.13727292193372   occ= 0
MO #118 energy= 7.13685198041831   | 7.13469898256352   | 7.13900497829248   occ= 0
MO #119 energy= 7.6059592598988    | 7.60450370283502   | 7.60741481697053   occ= 0
MO #120 energy= 7.61391337908595   | 7.6100089517272    | 7.6178178064447    occ= 0
MO #121 energy= 7.61391337908595   | 7.61000895172721   | 7.6178178064447    occ= 0
MO #122 energy= 7.86233443437271   | 7.85668581139857   | 7.86798305736229   occ= 0
MO #123 energy= 9.00368837933189   | 8.99761601640142   | 9.00976074235103   occ= 0
MO #124 energy= 9.07155703814314   | 9.04639204761611   | 9.09672202891196   occ= 0
MO #125 energy= 9.07157369640609   | 9.04630360430264   | 9.09684378850956   occ= 0
MO #126 energy= 9.08475190852478   | 9.06998631289013   | 9.09951750415942   occ= 0
MO #127 energy= 9.08475190852479   | 9.06998631289015   | 9.09951750415944   occ= 0
MO #128 energy= 9.18266093124      | 9.17885233965464   | 9.18646952282537   occ= 0
MO #129 energy= 9.19053577921804   | 9.17348499023732   | 9.20758656699726   occ= 0
MO #130 energy= 9.2451321884057    | 9.23605622229316   | 9.25420815451824   occ= 0
MO #131 energy= 9.24513218840571   | 9.23605622229316   | 9.25420815451825   occ= 0
MO #132 energy= 9.52855508548462   | 9.52075033763768   | 9.53635983323205   occ= 0
MO #133 energy= 13.5595688705708   | 13.5592526441708   | 13.5598850969697   occ= 0
 ** Mulliken pop on meta-lowdin orthogonal AOs  **
 ** Mulliken pop  **
pop of  0Ti 3s        1.99957
pop of  0Ti 4s        0.89277
pop of  0Ti 5s        0.00500
pop of  0Ti 6s        0.00230
pop of  0Ti 7s        0.00185
pop of  0Ti 8s        0.00115
pop of  0Ti 3px       1.99917
pop of  0Ti 3py       1.99917
pop of  0Ti 3pz       1.99612
pop of  0Ti 4px       0.00830
pop of  0Ti 4py       0.00830
pop of  0Ti 4pz       0.06802
pop of  0Ti 5px       0.00021
pop of  0Ti 5py       0.00021
pop of  0Ti 5pz       0.00701
pop of  0Ti 6px       0.00003
pop of  0Ti 6py       0.00003
pop of  0Ti 6pz       0.00163
pop of  0Ti 7px       0.00036
pop of  0Ti 7py       0.00036
pop of  0Ti 7pz       0.01524
pop of  0Ti 8px       0.00004
pop of  0Ti 8py       0.00004
pop of  0Ti 8pz       0.00150
pop of  0Ti 3dxy      0.99108
pop of  0Ti 3dyz      0.30580
pop of  0Ti 3dz^2     0.52563
pop of  0Ti 3dxz      0.30580
pop of  0Ti 3dx2-y2    0.00000
pop of  0Ti 4dxy      0.00640
pop of  0Ti 4dyz      0.00034
pop of  0Ti 4dz^2     0.00836
pop of  0Ti 4dxz      0.00034
pop of  0Ti 4dx2-y2    0.00000
pop of  0Ti 5dxy      0.00040
pop of  0Ti 5dyz      0.00012
pop of  0Ti 5dz^2     0.00258
pop of  0Ti 5dxz      0.00012
pop of  0Ti 5dx2-y2    0.00000
pop of  0Ti 6dxy      0.00128
pop of  0Ti 6dyz      0.00001
pop of  0Ti 6dz^2     0.00132
pop of  0Ti 6dxz      0.00001
pop of  0Ti 6dx2-y2    0.00000
pop of  0Ti 7dxy      0.00002
pop of  0Ti 7dyz      0.00000
pop of  0Ti 7dz^2     0.00005
pop of  0Ti 7dxz      0.00000
pop of  0Ti 7dx2-y2    0.00000
pop of  0Ti 4fy^3     0.00004
pop of  0Ti 4fxyz     0.00000
pop of  0Ti 4fyz^2    0.00013
pop of  0Ti 4fz^3     0.00024
pop of  0Ti 4fxz^2    0.00013
pop of  0Ti 4fzx^2    0.00000
pop of  0Ti 4fx^3     0.00004
pop of  0Ti 5fy^3     0.00007
pop of  0Ti 5fxyz     0.00007
pop of  0Ti 5fyz^2    0.00126
pop of  0Ti 5fz^3     0.00195
pop of  0Ti 5fxz^2    0.00126
pop of  0Ti 5fzx^2    0.00000
pop of  0Ti 5fx^3     0.00007
pop of  0Ti 6fy^3     0.00001
pop of  0Ti 6fxyz     0.00011
pop of  0Ti 6fyz^2    0.00066
pop of  0Ti 6fz^3     0.00457
pop of  0Ti 6fxz^2    0.00066
pop of  0Ti 6fzx^2    0.00000
pop of  0Ti 6fx^3     0.00001
pop of  0Ti 5g-4      0.00000
pop of  0Ti 5g-3      0.00000
pop of  0Ti 5g-2      0.00000
pop of  0Ti 5g-1      0.00001
pop of  0Ti 5g 0      0.00002
pop of  0Ti 5g 1      0.00001
pop of  0Ti 5g 2      0.00000
pop of  0Ti 5g 3      0.00000
pop of  0Ti 5g 4      0.00000
pop of  0Ti 6g-4      0.00000
pop of  0Ti 6g-3      0.00000
pop of  0Ti 6g-2      0.00000
pop of  0Ti 6g-1      0.00008
pop of  0Ti 6g 0      0.00083
pop of  0Ti 6g 1      0.00008
pop of  0Ti 6g 2      0.00000
pop of  0Ti 6g 3      0.00000
pop of  0Ti 6g 4      0.00001
pop of  1O 2s        1.85482
pop of  1O 3s        0.00192
pop of  1O 4s        0.00383
pop of  1O 5s        0.01391
pop of  1O 2px       1.67039
pop of  1O 2py       1.67039
pop of  1O 2pz       1.57442
pop of  1O 3px       0.00002
pop of  1O 3py       0.00002
pop of  1O 3pz       0.00051
pop of  1O 4px       0.00404
pop of  1O 4py       0.00404
pop of  1O 4pz       0.00103
pop of  1O 5px       0.00225
pop of  1O 5py       0.00225
pop of  1O 5pz       0.00481
pop of  1O 3dxy      0.00000
pop of  1O 3dyz      0.00035
pop of  1O 3dz^2     0.00048
pop of  1O 3dxz      0.00035
pop of  1O 3dx2-y2    0.00000
pop of  1O 4dxy      0.00000
pop of  1O 4dyz      0.00263
pop of  1O 4dz^2     0.00273
pop of  1O 4dxz      0.00263
pop of  1O 4dx2-y2    0.00000
pop of  1O 5dxy      0.00055
pop of  1O 5dyz      0.00348
pop of  1O 5dz^2     0.00337
pop of  1O 5dxz      0.00348
pop of  1O 5dx2-y2    0.00000
pop of  1O 4fy^3     0.00000
pop of  1O 4fxyz     0.00000
pop of  1O 4fyz^2    0.00007
pop of  1O 4fz^3     0.00012
pop of  1O 4fxz^2    0.00007
pop of  1O 4fzx^2    0.00000
pop of  1O 4fx^3     0.00000
pop of  1O 5fy^3     0.00000
pop of  1O 5fxyz     0.00007
pop of  1O 5fyz^2    0.00013
pop of  1O 5fz^3     0.00034
pop of  1O 5fxz^2    0.00013
pop of  1O 5fzx^2    0.00000
pop of  1O 5fx^3     0.00000
 ** Mulliken atomic charges  **
charge of  0Ti =      0.82964
charge of  1O =     -0.82964

******** <class 'pyscf.mcscf.mc1step.CASSCF'> flags ********
CAS (5e+3e, 9o), ncore = 5, nvir = 119
max_cycle_macro = 50
max_cycle_micro = 4
conv_tol = 1e-07
conv_tol_grad = None
orbital rotation max_stepsize = 0.02
augmented hessian ah_max_cycle = 30
augmented hessian ah_conv_tol = 1e-12
augmented hessian ah_linear dependence = 1e-14
augmented hessian ah_level shift = 0
augmented hessian ah_start_tol = 2.5
augmented hessian ah_start_cycle = 3
augmented hessian ah_grad_trust_region = 3
kf_trust_region = 3
kf_interval = 4
ci_response_space = 4
ci_grad_trust_region = 3
with_dep4 0
natorb = False
canonicalization = True
chkfile = ./scratch/188517/tmpIv9g5D
max_memory 4000 MB (current use 572 MB)
internal_rotation = False

******** SHCI flags ********
executable             = /home/bamu3429/softwares/dice/Dice
mpiprefix              = mpirun -np 28
scratchDirectory       = ./scratch/188517
integralFile           = ./FCIDUMP
configFile             = ./input.dat
outputFile             = ./output.dat
maxIter                = 6
sweep_iter             = []
sweep_epsilon          = []
nPTiter                = 0
Stochastic             = True
fullrestart            = False
restart                = False
num_thrds              = 12
memory                 = None

CASCI E = -73.2755090634063  S^2 = 2.0000000
Set conv_tol_grad to 0.000316228
macro iter 1 (7 JK  2 micro), CASSCF E = -73.2756028725283  dE = -9.3809122e-05  S^2 = 2.0000000
               |grad[o]|=0.000151  |grad[c]|= None  |ddm|=0.0134
macro iter 2 (7 JK  2 micro), CASSCF E = -73.275950853652  dE = -0.00034798112  S^2 = 2.0000000
               |grad[o]|=0.000762  |grad[c]|= None  |ddm|=0.00349
macro iter 3 (21 JK  4 micro), CASSCF E = -73.2949505190489  dE = -0.018999665  S^2 = 2.0000000
               |grad[o]|=0.00287  |grad[c]|= None  |ddm|=0.0459
macro iter 4 (21 JK  4 micro), CASSCF E = -73.3040887861427  dE = -0.0091382671  S^2 = 2.0000000
               |grad[o]|=0.0558  |grad[c]|= None  |ddm|=0.0614
macro iter 5 (21 JK  4 micro), CASSCF E = -73.305228281309  dE = -0.0011394952  S^2 = 2.0000000
               |grad[o]|=0.0464  |grad[c]|= None  |ddm|=0.0418
macro iter 6 (21 JK  4 micro), CASSCF E = -73.3054965653043  dE = -0.000268284  S^2 = 2.0000000
               |grad[o]|=0.0357  |grad[c]|= None  |ddm|=0.0309
macro iter 7 (21 JK  4 micro), CASSCF E = -73.3152049322222  dE = -0.0097083669  S^2 = 2.0000000
               |grad[o]|=0.0582  |grad[c]|= None  |ddm|=0.0797
macro iter 8 (21 JK  4 micro), CASSCF E = -73.3394927117524  dE = -0.02428778  S^2 = 2.0000000
               |grad[o]|=0.0323  |grad[c]|= None  |ddm|=0.0605
macro iter 9 (21 JK  4 micro), CASSCF E = -73.37145421873  dE = -0.031961507  S^2 = 2.0000000
               |grad[o]|=0.039  |grad[c]|= None  |ddm|=0.0758
macro iter 10 (21 JK  4 micro), CASSCF E = -73.3785002635486  dE = -0.0070460448  S^2 = 2.0000000
               |grad[o]|=0.046  |grad[c]|= None  |ddm|=0.0544
macro iter 11 (21 JK  4 micro), CASSCF E = -73.3798113711125  dE = -0.0013111076  S^2 = 2.0000000
               |grad[o]|=0.0375  |grad[c]|= None  |ddm|=0.0402
macro iter 12 (21 JK  4 micro), CASSCF E = -73.3801009679633  dE = -0.00028959685  S^2 = 2.0000000
               |grad[o]|=0.0348  |grad[c]|= None  |ddm|=0.0335
macro iter 13 (21 JK  4 micro), CASSCF E = -73.3801116354221  dE = -1.0667459e-05  S^2 = 2.0000000
               |grad[o]|=0.0336  |grad[c]|= None  |ddm|=0.0291
macro iter 14 (21 JK  4 micro), CASSCF E = -73.3799794383141  dE = 0.00013219711  S^2 = 2.0000000
               |grad[o]|=0.0327  |grad[c]|= None  |ddm|=0.026
macro iter 15 (21 JK  4 micro), CASSCF E = -73.3888357441587  dE = -0.0088563058  S^2 = 2.0000000
               |grad[o]|=0.0319  |grad[c]|= None  |ddm|=0.0101
macro iter 16 (21 JK  4 micro), CASSCF E = -73.3886502332562  dE = 0.0001855109  S^2 = 2.0000000
               |grad[o]|=0.0317  |grad[c]|= None  |ddm|=0.0186
macro iter 17 (21 JK  4 micro), CASSCF E = -73.3982497709215  dE = -0.0095995377  S^2 = 2.0000000
               |grad[o]|=0.0328  |grad[c]|= None  |ddm|=0.00865
macro iter 18 (21 JK  4 micro), CASSCF E = -73.3980793120166  dE = 0.0001704589  S^2 = 2.0000000
               |grad[o]|=0.0328  |grad[c]|= None  |ddm|=0.0142
macro iter 19 (21 JK  4 micro), CASSCF E = -73.4075463601474  dE = -0.0094670481  S^2 = 2.0000000
               |grad[o]|=0.0341  |grad[c]|= None  |ddm|=0.00773
macro iter 20 (21 JK  4 micro), CASSCF E = -73.4075013883923  dE = 4.4971755e-05  S^2 = 2.0000000
               |grad[o]|=0.0304  |grad[c]|= None  |ddm|=0.0123
macro iter 21 (21 JK  4 micro), CASSCF E = -73.4153223342883  dE = -0.0078209459  S^2 = 2.0000000
               |grad[o]|=0.0318  |grad[c]|= None  |ddm|=0.00682
macro iter 22 (21 JK  4 micro), CASSCF E = -73.4150324276701  dE = 0.00028990662  S^2 = 2.0000000
               |grad[o]|=0.0228  |grad[c]|= None  |ddm|=0.0153
macro iter 23 (21 JK  4 micro), CASSCF E = -73.4193743466203  dE = -0.004341919  S^2 = 2.0000000
               |grad[o]|=0.026  |grad[c]|= None  |ddm|=0.00751
macro iter 24 (16 JK  4 micro), CASSCF E = -73.4203905840279  dE = -0.0010162374  S^2 = 2.0000000
               |grad[o]|=0.0163  |grad[c]|= None  |ddm|=0.00549
macro iter 25 (13 JK  4 micro), CASSCF E = -73.4204331866444  dE = -4.2602616e-05  S^2 = 2.0000000
               |grad[o]|=0.0123  |grad[c]|= None  |ddm|=0.00902
macro iter 26 (13 JK  4 micro), CASSCF E = -73.4204184351748  dE = 1.475147e-05  S^2 = 2.0000000
               |grad[o]|=0.0123  |grad[c]|= None  |ddm|=0.00853
macro iter 27 (11 JK  4 micro), CASSCF E = -73.4211576980691  dE = -0.00073926289  S^2 = 2.0000000
               |grad[o]|=0.0123  |grad[c]|= None  |ddm|=0.00672
macro iter 28 (11 JK  4 micro), CASSCF E = -73.4214409726577  dE = -0.00028327459  S^2 = 2.0000000
               |grad[o]|=0.00713  |grad[c]|= None  |ddm|=0.00514
macro iter 29 (12 JK  4 micro), CASSCF E = -73.4214898819078  dE = -4.890925e-05  S^2 = 2.0000000
               |grad[o]|=0.0029  |grad[c]|= None  |ddm|=0.00302
macro iter 30 (11 JK  3 micro), CASSCF E = -73.4214914937385  dE = -1.6118307e-06  S^2 = 2.0000000
               |grad[o]|=0.00056  |grad[c]|= None  |ddm|=0.000615
macro iter 31 (3 JK  1 micro), CASSCF E = -73.4214914984594  dE = -4.7208886e-09  S^2 = 2.0000000
               |grad[o]|=6.06e-05  |grad[c]|= None  |ddm|=    0
1-step CASSCF converged in 31 macro (545 JK 116 micro) steps
CASSCF canonicalization
CASSCF energy = -73.4214914984594


--------------------------------------------------
                 ICMPSPT CALCULATION              
--------------------------------------------------

Perturbation type: MRLCC
With fully internally contracted scheme
With third order correction

Preparing necessary RDMs
......production of RDMs took      68.86 sec
Reading binary 4RDM from DICE
......reading the RDM took         29.70 sec

(GOOD) Trace 4RDM:   1680.0 =    8*    7*    6*    5
(GOOD) Trace 3RDM:    336.0 =    8*    7*    6
(GOOD) Trace 2RDM:     56.0 =    8*    7
(GOOD) Trace 1RDM:      8.0 =    8

Producing the integrals
......production of INT took     156.20 sec

Energy_core =  -81.060934812
Energy      =  -73.4214914985

WARNING: Have to use natural orbitals from CAASCF
         offdiagonal elements: 0.65272678723

Basic ingredients written to int/
......savings of INGREDIENTS took      40.06 sec

Second-order:
perturber CCVV --        -0.156027620
perturber CCAV --        -0.079242220
perturber ACVV --        -0.127037543
perturber CCAA --        -0.027163304
perturber AAVV --        -0.100580150
perturber CAAV --        -0.111432688
terminate called after throwing an instance of 'std::runtime_error'
  what():  No convergence!
/bin/sh: line 1: 93439 Aborted                 /projects/bamu3429/softwares/icpt/icpt MRLCC_AAAV.inp > MRLCC_AAAV.out
Traceback (most recent call last):
  File "mrpt.py", line 56, in <module>
    do_dm4=True)
  File "/projects/bamu3429/softwares/pyscf_uptodate/pyscf/icmpspt/icmpspt.py", line 1375, in icmpspt
    cumulantE4=cumulantE4, df=df, no_handcoded_E3=no_handcoded_E3)
  File "/projects/bamu3429/softwares/pyscf_uptodate/pyscf/icmpspt/icmpspt.py", line 689, in executeMRLCC
    output = check_call("%s  %s  %s > %s"%(mpiprefix, executable, infile, outfile), shell=True)
  File "/curc/sw/python/2.7.11/lib/python2.7/subprocess.py", line 540, in check_call
    raise CalledProcessError(retcode, cmd)
subprocess.CalledProcessError: Command '  /projects/bamu3429/softwares/icpt/icpt  MRLCC_AAAV.inp > MRLCC_AAAV.out' returned non-zero exit status 134
