 &FCI NORB=9 ,NELEC=8 ,MS2=2,
  ORBSYM=1,1,1,1,1,1,1,1,1,
  ISYM=1,
 &END
  6.528700450931e-01    1  1  1  1
  2.937094177723e-02    2  1  2  1
  5.853437800944e-01    2  2  1  1
  6.400404983920e-01    2  2  2  2
  2.937094177723e-02    3  1  3  1
 -1.264351843000e-08    3  2  2  2
  2.845865967250e-02    3  2  3  2
  5.853437800944e-01    3  3  1  1
  5.831052292223e-01    3  3  2  2
  1.264350164860e-08    3  3  3  2
  6.400404983920e-01    3  3  3  3
  2.135458506266e-02    4  1  1  1
  1.556371367040e-02    4  1  2  2
  1.556371367040e-02    4  1  3  3
  4.363492859882e-03    4  1  4  1
 -5.335360478026e-04    4  2  2  1
  5.990447564933e-07    4  2  3  1
  1.714087976196e-03    4  2  4  2
 -5.990447565993e-07    4  3  2  1
 -5.335360478026e-04    4  3  3  1
  1.714087976196e-03    4  3  4  3
  2.283155551654e-01    4  4  1  1
  2.116229921333e-01    4  4  2  2
  2.116229921333e-01    4  4  3  3
  2.525423159944e-03    4  4  4  1
  2.640399468154e-01    4  4  4  4
  2.585978277728e-04    5  1  2  2
  9.334364260027e-07    5  1  3  2
 -2.585978277724e-04    5  1  3  3
  7.702513253159e-03    5  1  5  1
 -1.893328904711e-03    5  2  2  1
  5.173566357449e-06    5  2  3  1
  4.955597848211e-04    5  2  4  2
 -1.136937861517e-06    5  2  4  3
  4.601678216096e-03    5  2  5  2
  5.173566357409e-06    5  3  2  1
  1.893328904712e-03    5  3  3  1
 -1.136937861510e-06    5  3  4  2
 -4.955597848211e-04    5  3  4  3
  4.601678216097e-03    5  3  5  3
  2.207895971962e-03    5  4  2  2
 -6.399548824997e-06    5  4  3  2
 -2.207895971960e-03    5  4  3  3
  2.758651877301e-03    5  4  5  1
  1.021728088245e-02    5  4  5  4
  3.839619670208e-01    5  5  1  1
  3.319970736611e-01    5  5  2  2
  3.319970736611e-01    5  5  3  3
  2.363168877193e-02    5  5  4  1
  3.114508954904e-01    5  5  4  4
  6.515049273673e-01    5  5  5  5
 -5.937714623209e-06    6  1  2  1
  1.035011387342e-02    6  1  3  1
 -2.774102937976e-07    6  1  4  2
  3.665687586702e-04    6  1  4  3
 -3.107847946379e-06    6  1  5  2
 -1.791583243064e-03    6  1  5  3
  1.375571328054e-02    6  1  6  1
 -3.351748591207e-05    6  2  1  1
 -4.796782934753e-05    6  2  2  2
  1.159692287823e-02    6  2  3  2
 -3.493877294047e-05    6  2  3  3
  3.117340203764e-07    6  2  4  1
  8.859772371481e-06    6  2  4  4
  2.428558506117e-06    6  2  5  1
  4.347784355242e-06    6  2  5  4
  2.497458373892e-05    6  2  5  5
  1.297471686347e-02    6  2  6  2
  1.371357602646e-01    6  3  1  1
  1.557852921838e-01    6  3  2  2
 -6.661900114430e-06    6  3  3  2
  1.789232794875e-01    6  3  3  3
 -1.189988334189e-03    6  3  4  1
 -3.006162533836e-02    6  3  4  4
  1.426284475167e-03    6  3  5  1
  2.175246364007e-03    6  3  5  4
 -7.611683792459e-02    6  3  5  5
 -3.088137646403e-05    6  3  6  2
  1.545698756616e-01    6  3  6  3
  1.423443322389e-07    6  4  2  1
  1.977678294027e-03    6  4  3  1
  9.478229286726e-07    6  4  4  2
 -2.642666113685e-03    6  4  4  3
  2.200356770479e-06    6  4  5  2
  7.183825374917e-04    6  4  5  3
 -1.549501151357e-04    6  4  6  1
  5.376720177344e-03    6  4  6  4
 -8.846486833631e-06    6  5  2  1
 -3.310145763154e-03    6  5  3  1
  2.902312507708e-06    6  5  4  2
  1.087411802221e-03    6  5  4  3
  2.306463161584e-06    6  5  5  2
 -7.057215969975e-03    6  5  5  3
  2.250030993374e-03    6  5  6  1
 -1.683883106889e-03    6  5  6  4
  1.495513486145e-02    6  5  6  5
  5.163559940485e-01    6  6  1  1
  4.856906856487e-01    6  6  2  2
 -3.374324544700e-06    6  6  3  2
  5.198329330228e-01    6  6  3  3
  2.074980758010e-02    6  6  4  1
  2.584659608221e-01    6  6  4  4
 -3.355973198206e-03    6  6  5  1
 -4.264654271522e-03    6  6  5  4
  4.619662988356e-01    6  6  5  5
 -1.085700899432e-05    6  6  6  2
  7.338491077519e-02    6  6  6  3
  5.296156017533e-01    6  6  6  6
  1.035011387342e-02    7  1  2  1
  5.937714623716e-06    7  1  3  1
  3.665687586703e-04    7  1  4  2
  2.774102937326e-07    7  1  4  3
  1.791583243064e-03    7  1  5  2
 -3.107847946179e-06    7  1  5  3
  6.625428808723e-08    7  1  6  4
  4.385958628364e-06    7  1  6  5
  1.375571328054e-02    7  1  7  1
  1.371357602646e-01    7  2  1  1
  1.789232794876e-01    7  2  2  2
  6.661900101251e-06    7  2  3  2
  1.557852921838e-01    7  2  3  3
 -1.189988334188e-03    7  2  4  1
 -3.006162533836e-02    7  2  4  4
 -1.426284475165e-03    7  2  5  1
 -2.175246364008e-03    7  2  5  4
 -7.611683792457e-02    7  2  5  5
 -3.097050214899e-05    7  2  6  2
  1.285573051570e-01    7  2  6  3
  6.539837672665e-02    7  2  6  6
  1.545698756615e-01    7  2  7  2
  3.351748590960e-05    7  3  1  1
  3.493877293776e-05    7  3  2  2
  1.159692287823e-02    7  3  3  2
  4.796782934895e-05    7  3  3  3
 -3.117340209885e-07    7  3  4  1
 -8.859772376500e-06    7  3  4  4
  2.428558505984e-06    7  3  5  1
  4.347784354910e-06    7  3  5  4
 -2.497458375158e-05    7  3  5  5
  1.297468807295e-02    7  3  6  2
  3.097050215257e-05    7  3  6  3
  1.297235382317e-05    7  3  6  6
  3.088137646678e-05    7  3  7  2
  1.297471686347e-02    7  3  7  3
  1.977678294028e-03    7  4  2  1
 -1.423443322959e-07    7  4  3  1
 -2.642666113685e-03    7  4  4  2
 -9.478229289439e-07    7  4  4  3
 -7.183825374918e-04    7  4  5  2
  2.200356770339e-06    7  4  5  3
 -6.625428786695e-08    7  4  6  1
 -5.348413458709e-06    7  4  6  5
 -1.549501151361e-04    7  4  7  1
  5.376720177345e-03    7  4  7  4
  3.310145763154e-03    7  5  2  1
 -8.846486833455e-06    7  5  3  1
 -1.087411802221e-03    7  5  4  2
  2.902312507624e-06    7  5  4  3
 -7.057215969973e-03    7  5  5  2
 -2.306463162467e-06    7  5  5  3
  4.385958628472e-06    7  5  6  1
 -5.348413458808e-06    7  5  6  4
 -2.250030993374e-03    7  5  7  1
  1.683883106889e-03    7  5  7  4
  1.495513486145e-02    7  5  7  5
 -3.600251354092e-06    7  6  2  2
  1.701866391365e-02    7  6  3  2
  3.600251358896e-06    7  6  3  3
 -5.901533278506e-06    7  6  5  1
 -1.034057663788e-05    7  6  5  4
  4.074640048328e-03    7  6  6  2
 -1.385444552902e-06    7  6  6  3
  3.575730042055e-07    7  6  6  6
  1.385444552267e-06    7  6  7  2
  4.074640048326e-03    7  6  7  3
  1.802581242883e-02    7  6  7  6
  5.163559940485e-01    7  7  1  1
  5.198329330227e-01    7  7  2  2
  3.374324539930e-06    7  7  3  2
  4.856906856487e-01    7  7  3  3
  2.074980758009e-02    7  7  4  1
  2.584659608221e-01    7  7  4  4
  3.355973198205e-03    7  7  5  1
  4.264654271526e-03    7  7  5  4
  4.619662988356e-01    7  7  5  5
 -1.297235382840e-05    7  7  6  2
  6.539837672665e-02    7  7  6  3
  4.932036555376e-01    7  7  6  6
  7.338491077519e-02    7  7  7  2
  1.085700898621e-05    7  7  7  3
 -3.575729960016e-07    7  7  7  6
  5.296156017533e-01    7  7  7  7
  1.275401689445e-01    8  1  1  1
  1.343608104635e-01    8  1  2  2
  1.343608104634e-01    8  1  3  3
 -3.818467749681e-03    8  1  4  1
 -4.844131073591e-02    8  1  4  4
 -1.224642856372e-01    8  1  5  5
 -3.179328007894e-05    8  1  6  2
  1.222623958606e-01    8  1  6  3
  2.282133319821e-02    8  1  6  6
  1.222623958606e-01    8  1  7  2
  3.179328008479e-05    8  1  7  3
  2.282133319821e-02    8  1  7  7
  1.537714772512e-01    8  1  8  1
  1.343420395787e-02    8  2  2  1
  2.553345106486e-06    8  2  3  1
  3.002203721589e-04    8  2  4  2
 -5.310806737504e-07    8  2  4  3
 -1.439103999630e-03    8  2  5  2
  5.589794141157e-06    8  2  5  3
 -4.668001096078e-06    8  2  6  1
  3.621710513689e-07    8  2  6  4
 -1.953456205191e-06    8  2  6  5
  8.219117867268e-03    8  2  7  1
  1.367308941037e-03    8  2  7  4
 -1.079720070603e-04    8  2  7  5
  1.303820490109e-02    8  2  8  2
 -2.553345107495e-06    8  3  2  1
  1.343420395787e-02    8  3  3  1
  5.310806736982e-07    8  3  4  2
  3.002203721589e-04    8  3  4  3
  5.589794141230e-06    8  3  5  2
  1.439103999629e-03    8  3  5  3
  8.219117867269e-03    8  3  6  1
  1.367308941037e-03    8  3  6  4
  1.079720070608e-04    8  3  6  5
  4.668001096509e-06    8  3  7  1
 -3.621710514342e-07    8  3  7  4
 -1.953456205266e-06    8  3  7  5
  1.303820490109e-02    8  3  8  3
 -2.869716986053e-02    8  4  1  1
 -2.167590096265e-02    8  4  2  2
 -2.167590096265e-02    8  4  3  3
 -6.895631270382e-03    8  4  4  1
 -6.864364145323e-03    8  4  4  4
 -5.241238014061e-02    8  4  5  5
 -3.235995542152e-06    8  4  6  2
  1.027788991021e-02    8  4  6  3
 -3.767819176290e-02    8  4  6  6
  1.027788991021e-02    8  4  7  2
  3.235995543435e-06    8  4  7  3
 -3.767819176290e-02    8  4  7  7
  1.646815621398e-02    8  4  8  1
  1.480978003634e-02    8  4  8  4
 -2.425647835647e-03    8  5  2  2
  5.433166434547e-06    8  5  3  2
  2.425647835648e-03    8  5  3  3
 -1.227646064346e-02    8  5  5  1
 -6.038157080060e-03    8  5  5  4
 -4.795381899553e-06    8  5  6  2
 -3.064566093731e-03    8  5  6  3
  6.745288144727e-03    8  5  6  6
  3.064566093731e-03    8  5  7  2
 -4.795381899154e-06    8  5  7  3
  1.358653665641e-05    8  5  7  6
 -6.745288144725e-03    8  5  7  7
  2.264299844099e-02    8  5  8  5
 -2.302966591598e-06    8  6  2  1
  1.301441639771e-02    8  6  3  1
  2.614406210482e-08    8  6  4  2
  4.675817564062e-04    8  6  4  3
  1.637864441136e-06    8  6  5  2
  9.784469946851e-04    8  6  5  3
  2.346812708043e-03    8  6  6  1
  2.090580188459e-04    8  6  6  4
 -3.346432622348e-03    8  6  6  5
  8.086150769889e-07    8  6  7  1
 -3.068087268547e-07    8  6  7  4
 -6.202744030259e-06    8  6  7  5
  1.428206442257e-08    8  6  8  2
  3.029898549881e-03    8  6  8  3
  1.427613850318e-02    8  6  8  6
  1.301441639771e-02    8  7  2  1
  2.302966592158e-06    8  7  3  1
  4.675817564062e-04    8  7  4  2
 -2.614406211410e-08    8  7  4  3
 -9.784469946845e-04    8  7  5  2
  1.637864441146e-06    8  7  5  3
 -8.086150766251e-07    8  7  6  1
  3.068087268258e-07    8  7  6  4
 -6.202744030372e-06    8  7  6  5
  2.346812708042e-03    8  7  7  1
  2.090580188460e-04    8  7  7  4
  3.346432622348e-03    8  7  7  5
  3.029898549881e-03    8  7  8  2
 -1.428206489171e-08    8  7  8  3
  1.427613850318e-02    8  7  8  7
  5.113600801927e-01    8  8  1  1
  4.364711924081e-01    8  8  2  2
  4.364711924081e-01    8  8  3  3
  2.782203880595e-02    8  8  4  1
  2.931782446170e-01    8  8  4  4
  5.615902071711e-01    8  8  5  5
  6.879359468604e-06    8  8  6  2
 -4.491651003007e-03    8  8  6  3
  5.144985573348e-01    8  8  6  6
 -4.491651002995e-03    8  8  7  2
 -6.879359479638e-06    8  8  7  3
  5.144985573348e-01    8  8  7  7
 -6.049192526761e-02    8  8  8  1
 -5.458940281890e-02    8  8  8  4
  6.324119139071e-01    8  8  8  8
  1.272741701692e-01    9  1  1  1
  1.135425863513e-01    9  1  2  2
  1.135425863513e-01    9  1  3  3
  4.187347933836e-03    9  1  4  1
  8.214966156583e-03    9  1  4  4
  1.470621673396e-02    9  1  5  5
 -1.387184900471e-05    9  1  6  2
  8.442594436597e-02    9  1  6  3
  8.927680394327e-02    9  1  6  6
  8.442594436597e-02    9  1  7  2
  1.387184900273e-05    9  1  7  3
  8.927680394326e-02    9  1  7  7
  6.850255923112e-02    9  1  8  1
  6.070762571099e-04    9  1  8  4
  6.505252196842e-02    9  1  8  8
  1.179457693924e-01    9  1  9  1
  3.228795738514e-03    9  2  2  1
  1.521145685871e-06    9  2  3  1
  1.077773251323e-03    9  2  4  2
  1.524256889776e-07    9  2  4  3
  1.509197603354e-03    9  2  5  2
 -3.821294888583e-06    9  2  5  3
  4.572417390932e-07    9  2  6  1
  1.923149402710e-07    9  2  6  4
  6.554432422690e-06    9  2  6  5
  1.008005032696e-02    9  2  7  1
 -1.457536541643e-03    9  2  7  4
 -2.357384838230e-03    9  2  7  5
  3.992496683045e-03    9  2  8  2
  1.935560224017e-06    9  2  8  3
 -1.086179434109e-06    9  2  8  6
  3.971757230492e-03    9  2  8  7
  1.605657737787e-02    9  2  9  2
 -1.521145686873e-06    9  3  2  1
  3.228795738513e-03    9  3  3  1
 -1.524256888594e-07    9  3  4  2
  1.077773251323e-03    9  3  4  3
 -3.821294888593e-06    9  3  5  2
 -1.509197603355e-03    9  3  5  3
  1.008005032696e-02    9  3  6  1
 -1.457536541643e-03    9  3  6  4
  2.357384838230e-03    9  3  6  5
 -4.572417397234e-07    9  3  7  1
 -1.923149403489e-07    9  3  7  4
  6.554432422545e-06    9  3  7  5
 -1.935560224533e-06    9  3  8  2
  3.992496683044e-03    9  3  8  3
  3.971757230492e-03    9  3  8  6
  1.086179433777e-06    9  3  8  7
  1.605657737787e-02    9  3  9  3
  2.345364032067e-02    9  4  1  1
  2.035954181872e-02    9  4  2  2
  2.035954181872e-02    9  4  3  3
  2.359005669945e-03    9  4  4  1
  5.950393220129e-03    9  4  4  4
  2.507785215087e-02    9  4  5  5
  1.204963809035e-07    9  4  6  2
 -2.412250113932e-04    9  4  6  3
  2.404818300346e-02    9  4  6  6
 -2.412250113925e-04    9  4  7  2
 -1.204963813276e-07    9  4  7  3
  2.404818300346e-02    9  4  7  7
 -1.935272091221e-03    9  4  8  1
 -4.577556271857e-03    9  4  8  4
  2.924007929350e-02    9  4  8  8
  3.562511583759e-03    9  4  9  1
  2.531263734269e-03    9  4  9  4
  1.550973348011e-03    9  5  2  2
 -4.768732379406e-06    9  5  3  2
 -1.550973348011e-03    9  5  3  3
  1.275290826142e-03    9  5  5  1
  1.978186788620e-03    9  5  5  4
  2.356144436836e-06    9  5  6  2
  1.228975852276e-03    9  5  6  3
 -2.189124843314e-03    9  5  6  6
 -1.228975852275e-03    9  5  7  2
  2.356144436645e-06    9  5  7  3
 -5.304390759987e-06    9  5  7  6
  2.189124843314e-03    9  5  7  7
 -3.690600943020e-03    9  5  8  5
  1.402876326766e-03    9  5  9  5
  2.345878803885e-07    9  6  2  1
  1.512310015594e-02    9  6  3  1
  1.817260116082e-07    9  6  4  2
 -1.024429032972e-03    9  6  4  3
  4.555910458173e-06    9  6  5  2
  1.776917664144e-03    9  6  5  3
  7.374366553316e-03    9  6  6  1
  2.173981096795e-03    9  6  6  4
 -2.087502659762e-03    9  6  6  5
  1.410150243071e-06    9  6  7  1
  3.302426233831e-07    9  6  7  4
 -5.976687463638e-06    9  6  7  5
  6.891264475717e-07    9  6  8  2
  8.184472654385e-03    9  6  8  3
  5.191331876677e-03    9  6  8  6
  3.968942591548e-07    9  6  8  7
 -1.536397402042e-06    9  6  9  2
  6.352053511593e-03    9  6  9  3
  1.411915259407e-02    9  6  9  6
  1.512310015595e-02    9  7  2  1
 -2.345878813625e-07    9  7  3  1
 -1.024429032972e-03    9  7  4  2
 -1.817260116741e-07    9  7  4  3
 -1.776917664144e-03    9  7  5  2
  4.555910457970e-06    9  7  5  3
 -1.410150242633e-06    9  7  6  1
 -3.302426235026e-07    9  7  6  4
 -5.976687463540e-06    9  7  6  5
  7.374366553315e-03    9  7  7  1
  2.173981096796e-03    9  7  7  4
  2.087502659763e-03    9  7  7  5
  8.184472654386e-03    9  7  8  2
 -6.891264479364e-07    9  7  8  3
 -3.968942592683e-07    9  7  8  6
  5.191331876677e-03    9  7  8  7
  6.352053511592e-03    9  7  9  2
  1.536397401757e-06    9  7  9  3
  1.411915259407e-02    9  7  9  7
  9.492533367287e-02    9  8  1  1
  9.136669180408e-02    9  8  2  2
  9.136669180407e-02    9  8  3  3
  1.748198640796e-04    9  8  4  1
 -1.225315235274e-02    9  8  4  4
 -3.927752012063e-02    9  8  5  5
 -1.749275953200e-05    9  8  6  2
  7.412446122171e-02    9  8  6  3
  4.260393373074e-02    9  8  6  6
  7.412446122171e-02    9  8  7  2
  1.749275953331e-05    9  8  7  3
  4.260393373074e-02    9  8  7  7
  7.981826155988e-02    9  8  8  1
  8.871580263326e-03    9  8  8  4
 -3.674056101684e-03    9  8  8  8
  7.091969708137e-02    9  8  9  1
  5.803946111778e-05    9  8  9  4
  6.380200068829e-02    9  8  9  8
  6.189646728233e-01    9  9  1  1
  5.790095400759e-01    9  9  2  2
  5.790095400759e-01    9  9  3  3
  1.417720135009e-02    9  9  4  1
  1.907679731203e-01    9  9  4  4
  2.938982364487e-01    9  9  5  5
 -3.953808785934e-05    9  9  6  2
  1.788618146295e-01    9  9  6  3
  4.793100469922e-01    9  9  6  6
  1.788618146295e-01    9  9  7  2
  3.953808785970e-05    9  9  7  3
  4.793100469922e-01    9  9  7  7
  1.737788652152e-01    9  9  8  1
 -1.963038720791e-02    9  9  8  4
  4.271809229342e-01    9  9  8  8
  1.519894609541e-01    9  9  9  1
  1.952190012321e-02    9  9  9  4
  1.179000206286e-01    9  9  9  8
  6.737387684054e-01    9  9  9  9
 -3.977590266979e+00    1  1  0  0
 -3.868440872520e+00    2  2  0  0
 -3.868440872520e+00    3  3  0  0
 -1.108159940715e-01    4  1  0  0
 -1.859464702768e+00    4  4  0  0
 -2.838020271243e+00    5  5  0  0
  3.379315422061e-04    6  2  0  0
 -5.924516030762e-01    6  3  0  0
 -3.125234620158e+00    6  6  0  0
 -5.924516030761e-01    7  2  0  0
 -3.379315422060e-04    7  3  0  0
 -3.125234620158e+00    7  7  0  0
 -4.475621205023e-01    8  1  0  0
  1.914012380239e-01    8  4  0  0
 -3.082265922433e+00    8  8  0  0
 -5.317267757045e-01    9  1  0  0
 -1.246985296746e-01    9  4  0  0
 -3.104628544971e-01    9  8  0  0
 -2.025746002010e+00    9  9  0  0
    -57.583776248434   0  0  0  0
