#INFO: **** input file is /projects/bamu3429/BENCHMARK/fresh_atoms/MRPT/vqz/monoxides/TiO/mrpt.py ****
import json
from pyscf import gto,scf,mcscf, fci, lo, ci, cc
from pyscf.scf import ROHF, UHF,ROKS
import numpy as np
import pandas as pd

# THIS IS WERE IT STARTS ====================================

df=json.load(open("../../../trail.json"))

spins={'ScO':1, 'TiO':2, 'VO':3, 'CrO':4, 'MnO':5, 'FeO':4, 'CuO':1}

nd={'Sc':(1,0), 'Ti':(2,0), 'V':(3,0), 'Cr':(5,0), 'Mn':(5,0), 'Fe':(5,1), 'Cu':(5,4)}

cas={'Sc':3, 'Ti':4, 'V':5, 'Cr':6, 'Mn':7, 'Fe':8, 'Cu':11}

re={'ScO':1.668, 'TiO':1.623, 'VO':1.591, 'CrO':1.621, 'MnO':1.648, 'FeO':1.616, 'CuO':1.725}

datacsv={}
for nm in ['basis','charge','method','molecule','pseudopotential',
           'totalenergy','totalenergy-stocherr','totalenergy-syserr']:
  datacsv[nm]=[]

basis='vqz'
element='Ti'

mol=gto.Mole()
mol.ecp={}
mol.basis={}
for el in [element,'O']:
  mol.ecp[el]=gto.basis.parse_ecp(df[el]['ecp'])
  mol.basis[el]=gto.basis.parse(df[el][basis])
mol.charge=0
mol.spin=spins[element+'O']
mol.build(atom="%s 0. 0. 0.; O 0. 0. %g"%(element,re[element+'O']),verbose=4)

m=ROHF(mol)
m.level_shift=1000.0
dm=m.from_chk("../../../../HF/monoxides/"+element+basis+"0.chk")
hf=m.kernel(dm)
m.analyze()

from pyscf.shciscf import shci
mc = shci.SHCISCF(m, 9, 4+cas[element])
#mc.fcisolver.conv_tol = 1e-14
mc.fcisolver.mpiprefix="mpirun -np 28"
mc.fcisolver.num_thrds=12
mc.verbose = 4
cas=mc.kernel()[0]
 
from pyscf.icmpspt import icmpspt
pt=icmpspt.icmpspt(mc,rdmM=500, PTM=1000,\
                          pttype="MRLCC",\
                          third_order=True,\
                          fully_ic=True,\
                          do_dm4=True)

datacsv['basis'].append(basis)
datacsv['charge'].append(0)
datacsv['method'].append('MRPT')
datacsv['molecule'].append(element)
datacsv['pseudopotential'].append('trail')
datacsv['totalenergy'].append(cas+pt)
datacsv['totalenergy-stocherr'].append(0.0)
datacsv['totalenergy-syserr'].append(0.0)
pd.DataFrame(datacsv).to_csv(element+".csv",index=False)

#INFO: ******************** input file end ********************


System: ('Linux', 'bnode0306.rc.int.colorado.edu', '3.10.0-514.41.1.el7.x86_64', '#1 SMP Wed Jan 17 10:26:16 EST 2018', 'x86_64', 'x86_64')  Threads 1
Python 2.7.11 (default, Mar 22 2016, 01:42:54) 
[GCC Intel(R) C++ gcc 4.8 mode]
numpy 1.11.1  scipy 0.17.1
Date: Tue Mar 27 13:22:33 2018
PySCF version 1.4
PySCF path  /projects/bamu3429/softwares/pyscf_uptodate/pyscf
GIT ORIG_HEAD e2292e6edec2b0e0024c21b81de03db1d7bd4121
GIT HEAD      ref: refs/heads/master
GIT master branch  f3591ef22170896a4cdc2aadaa6f5da388ffcadb

[INPUT] VERBOSE 4
[INPUT] num atoms = 2
[INPUT] num electrons = 18
[INPUT] charge = 0
[INPUT] spin (= nelec alpha-beta = 2S) = 2
[INPUT] symmetry False subgroup None
[INPUT]  1 Ti     0.000000000000   0.000000000000   0.000000000000 AA    0.000000000000   0.000000000000   0.000000000000 Bohr
[INPUT]  2 O      0.000000000000   0.000000000000   1.623000000000 AA    0.000000000000   0.000000000000   3.067025500169 Bohr
[INPUT] ---------------- BASIS SET ---------------- 
[INPUT] l, kappa, [nprim/nctr], expnt,             c_1 c_2 ...
[INPUT] O
[INPUT] 0    0    [10   /1   ]  57.663349         -0.002794
                                35.726816         0.023976
                                22.453757         -0.115974
                                14.732301         0.288033
                                9.739917          -0.274786
                                5.042008          -0.083789
                                2.157818          0.063778
                                1.002916          0.410182
                                0.421839          0.504044
                                0.173041          0.172152
[INPUT] 0    0    [1    /1   ]  1.70747              1
[INPUT] 0    0    [1    /1   ]  0.617491             1
[INPUT] 0    0    [1    /1   ]  0.223309             1
[INPUT] 0    0    [1    /1   ]  0.084592             1
[INPUT] 1    0    [10   /1   ]  52.47406          -0.000522
                                32.138432         0.004857
                                19.458579         -0.027749
                                11.839344         0.074258
                                7.91003           0.014369
                                3.670858          0.153479
                                1.53966           0.283685
                                0.647119          0.358201
                                0.267853          0.29559
                                0.107198          0.104889
[INPUT] 1    0    [1    /1   ]  1.345435             1
[INPUT] 1    0    [1    /1   ]  0.458358             1
[INPUT] 1    0    [1    /1   ]  0.156151             1
[INPUT] 1    0    [1    /1   ]  0.045837             1
[INPUT] 2    0    [1    /1   ]  3.661538             1
[INPUT] 2    0    [1    /1   ]  1.279275             1
[INPUT] 2    0    [1    /1   ]  0.446952             1
[INPUT] 2    0    [1    /1   ]  0.148191             1
[INPUT] 3    0    [1    /1   ]  2.598839             1
[INPUT] 3    0    [1    /1   ]  0.849032             1
[INPUT] 3    0    [1    /1   ]  0.310222             1
[INPUT] 4    0    [1    /1   ]  1.838653             1
[INPUT] 4    0    [1    /1   ]  0.706784             1
[INPUT] Ti
[INPUT] 0    0    [12   /1   ]  37.13946663       0.002411
                                11.66061728       -0.575963
                                8.9751153         2.645948
                                7.67011905        -2.362876
                                3.44923714        -0.059842
                                1.58705441        0.244002
                                0.95387432        0.58593
                                0.47300537        0.378609
                                0.2203041         0.031099
                                0.10349534        0.004602
                                0.04822069        0.000609
                                0.0226639         0.001044
[INPUT] 0    0    [12   /1   ]  37.13946663       -0.000363
                                11.66061728       0.129591
                                8.9751153         -0.625086
                                7.67011905        0.572499
                                3.44923714        0.016652
                                1.58705441        -0.073052
                                0.95387432        -0.203234
                                0.47300537        -0.251131
                                0.2203041         -0.044619
                                0.10349534        0.38905
                                0.04822069        0.591401
                                0.0226639         0.208165
[INPUT] 0    0    [12   /1   ]  37.13946663       -0.001115
                                11.66061728       0.51967
                                8.9751153         -2.657294
                                7.67011905        2.533238
                                3.44923714        0.024774
                                1.58705441        -1.195577
                                0.95387432        -0.355978
                                0.47300537        0.518177
                                0.2203041         0.914245
                                0.10349534        0.348281
                                0.04822069        -0.566441
                                0.0226639         -0.389331
[INPUT] 0    0    [12   /1   ]  37.13946663       -0.002329
                                11.66061728       0.799099
                                8.9751153         -4.200932
                                7.67011905        4.132106
                                3.44923714        -0.32722
                                1.58705441        -2.567932
                                0.95387432        1.125856
                                0.47300537        2.155366
                                0.2203041         -0.743551
                                0.10349534        -1.579371
                                0.04822069        0.515995
                                0.0226639         0.699247
[INPUT] 0    0    [12   /1   ]  37.13946663       0.006064
                                11.66061728       -1.642157
                                8.9751153         9.19655
                                7.67011905        -9.630064
                                3.44923714        3.376611
                                1.58705441        2.286739
                                0.95387432        -6.165423
                                0.47300537        2.656283
                                0.2203041         1.918514
                                0.10349534        -2.202132
                                0.04822069        -0.293714
                                0.0226639         0.961713
[INPUT] 0    0    [1    /1   ]  0.0226639            1
[INPUT] 0    0    [1    /1   ]  0.01065211           1
[INPUT] 1    0    [12   /1   ]  44.38520603       0.000557
                                23.85822456       -0.004857
                                12.73507149       0.027448
                                6.00842867        -0.150306
                                3.96301478        0.092203
                                2.13751474        0.210744
                                1.20712576        0.397756
                                0.62000194        0.354359
                                0.30900057        0.130823
                                0.12918293        0.012952
                                0.05400711        -0.000125
                                0.02257859        0.000245
[INPUT] 1    0    [12   /1   ]  44.38520603       -7.7e-05
                                23.85822456       0.000906
                                12.73507149       -0.006126
                                6.00842867        0.038285
                                3.96301478        -0.027356
                                2.13751474        -0.059665
                                1.20712576        -0.115513
                                0.62000194        -0.130421
                                0.30900057        0.025358
                                0.12918293        0.394962
                                0.05400711        0.54831
                                0.02257859        0.169017
[INPUT] 1    0    [12   /1   ]  44.38520603       0.000289
                                23.85822456       -0.004068
                                12.73507149       0.031182
                                6.00842867        -0.242448
                                3.96301478        0.198909
                                2.13751474        0.720192
                                1.20712576        0.162963
                                0.62000194        -0.788053
                                0.30900057        -0.456042
                                0.12918293        0.594094
                                0.05400711        0.321239
                                0.02257859        -0.002282
[INPUT] 1    0    [12   /1   ]  44.38520603       0.000322
                                23.85822456       -0.006293
                                12.73507149       0.061433
                                6.00842867        -0.709428
                                3.96301478        1.230546
                                2.13751474        1.099591
                                1.20712576        -1.80149
                                0.62000194        -0.680724
                                0.30900057        1.665036
                                0.12918293        -0.194409
                                0.05400711        -0.605253
                                0.02257859        0.020232
[INPUT] 1    0    [12   /1   ]  44.38520603       -0.006431
                                23.85822456       0.02841
                                12.73507149       -0.038493
                                6.00842867        -0.726428
                                3.96301478        2.460211
                                2.13751474        -1.502353
                                1.20712576        -1.404761
                                0.62000194        2.497509
                                0.30900057        -1.029217
                                0.12918293        -0.611426
                                0.05400711        0.750291
                                0.02257859        -0.038783
[INPUT] 1    0    [1    /1   ]  0.02257859           1
[INPUT] 1    0    [1    /1   ]  0.00943936           1
[INPUT] 2    0    [10   /1   ]  29.31465998       -0.000519
                                13.63067536       -0.007186
                                8.04907964        0.095441
                                3.25682476        0.170565
                                1.474054          0.27882
                                0.66141289        0.324798
                                0.29673638        0.280135
                                0.13456087        0.172066
                                0.06095666        0.058237
                                0.02784531        0.004588
[INPUT] 2    0    [10   /1   ]  29.31465998       0.00281
                                13.63067536       -0.006479
                                8.04907964        -0.060988
                                3.25682476        -0.258291
                                1.474054          -0.49009
                                0.66141289        0.014554
                                0.29673638        0.352182
                                0.13456087        0.382358
                                0.06095666        0.172767
                                0.02784531        0.017366
[INPUT] 2    0    [10   /1   ]  29.31465998       0.007744
                                13.63067536       -0.037639
                                8.04907964        0.009879
                                3.25682476        -0.574581
                                1.474054          -0.215187
                                0.66141289        0.874455
                                0.29673638        0.174962
                                0.13456087        -0.439503
                                0.06095666        -0.344031
                                0.02784531        -0.031851
[INPUT] 2    0    [10   /1   ]  29.31465998       -0.001945
                                13.63067536       0.029001
                                8.04907964        -0.27627
                                3.25682476        -0.946826
                                1.474054          1.28698
                                0.66141289        0.065529
                                0.29673638        -0.957094
                                0.13456087        0.325461
                                0.06095666        0.369531
                                0.02784531        0.058554
[INPUT] 2    0    [1    /1   ]  0.02784531           1
[INPUT] 2    0    [1    /1   ]  0.01271987           1
[INPUT] 3    0    [1    /1   ]  2.750207             1
[INPUT] 3    0    [1    /1   ]  0.966241             1
[INPUT] 3    0    [1    /1   ]  0.339471             1
[INPUT] 3    0    [1    /1   ]  0.11926688           1
[INPUT] 4    0    [1    /1   ]  2.807857             1
[INPUT] 4    0    [1    /1   ]  1.018064             1
[INPUT] 4    0    [1    /1   ]  0.36912644           1
[INPUT] 5    0    [1    /1   ]  2.388057             1
[INPUT] 5    0    [1    /1   ]  0.8658542            1
nuclear repulsion = 23.4755139779667
number of shells = 48
number of NR pGTOs = 650
number of NR cGTOs = 214
basis = {'O': [[0, [57.663349, -0.002794], [35.726816, 0.023976], [22.453757, -0.115974], [14.732301, 0.288033], [9.739917, -0.274786], [5.042008, -0.083789], [2.157818, 0.063778], [1.002916, 0.410182], [0.421839, 0.504044], [0.173041, 0.172152]], [0, [1.70747, 1.0]], [0, [0.617491, 1.0]], [0, [0.223309, 1.0]], [0, [0.084592, 1.0]], [1, [52.47406, -0.000522], [32.138432, 0.004857], [19.458579, -0.027749], [11.839344, 0.074258], [7.91003, 0.014369], [3.670858, 0.153479], [1.53966, 0.283685], [0.647119, 0.358201], [0.267853, 0.29559], [0.107198, 0.104889]], [1, [1.345435, 1.0]], [1, [0.458358, 1.0]], [1, [0.156151, 1.0]], [1, [0.045837, 1.0]], [2, [3.661538, 1.0]], [2, [1.279275, 1.0]], [2, [0.446952, 1.0]], [2, [0.148191, 1.0]], [3, [2.598839, 1.0]], [3, [0.849032, 1.0]], [3, [0.310222, 1.0]], [4, [1.838653, 1.0]], [4, [0.706784, 1.0]]], 'Ti': [[0, [37.13946663, 0.002411], [11.66061728, -0.575963], [8.9751153, 2.645948], [7.67011905, -2.362876], [3.44923714, -0.059842], [1.58705441, 0.244002], [0.95387432, 0.58593], [0.47300537, 0.378609], [0.2203041, 0.031099], [0.10349534, 0.004602], [0.04822069, 0.000609], [0.0226639, 0.001044]], [0, [37.13946663, -0.000363], [11.66061728, 0.129591], [8.9751153, -0.625086], [7.67011905, 0.572499], [3.44923714, 0.016652], [1.58705441, -0.073052], [0.95387432, -0.203234], [0.47300537, -0.251131], [0.2203041, -0.044619], [0.10349534, 0.38905], [0.04822069, 0.591401], [0.0226639, 0.208165]], [0, [37.13946663, -0.001115], [11.66061728, 0.51967], [8.9751153, -2.657294], [7.67011905, 2.533238], [3.44923714, 0.024774], [1.58705441, -1.195577], [0.95387432, -0.355978], [0.47300537, 0.518177], [0.2203041, 0.914245], [0.10349534, 0.348281], [0.04822069, -0.566441], [0.0226639, -0.389331]], [0, [37.13946663, -0.002329], [11.66061728, 0.799099], [8.9751153, -4.200932], [7.67011905, 4.132106], [3.44923714, -0.32722], [1.58705441, -2.567932], [0.95387432, 1.125856], [0.47300537, 2.155366], [0.2203041, -0.743551], [0.10349534, -1.579371], [0.04822069, 0.515995], [0.0226639, 0.699247]], [0, [37.13946663, 0.006064], [11.66061728, -1.642157], [8.9751153, 9.19655], [7.67011905, -9.630064], [3.44923714, 3.376611], [1.58705441, 2.286739], [0.95387432, -6.165423], [0.47300537, 2.656283], [0.2203041, 1.918514], [0.10349534, -2.202132], [0.04822069, -0.293714], [0.0226639, 0.961713]], [0, [0.0226639, 1.0]], [0, [0.01065211, 1.0]], [1, [44.38520603, 0.000557], [23.85822456, -0.004857], [12.73507149, 0.027448], [6.00842867, -0.150306], [3.96301478, 0.092203], [2.13751474, 0.210744], [1.20712576, 0.397756], [0.62000194, 0.354359], [0.30900057, 0.130823], [0.12918293, 0.012952], [0.05400711, -0.000125], [0.02257859, 0.000245]], [1, [44.38520603, -7.7e-05], [23.85822456, 0.000906], [12.73507149, -0.006126], [6.00842867, 0.038285], [3.96301478, -0.027356], [2.13751474, -0.059665], [1.20712576, -0.115513], [0.62000194, -0.130421], [0.30900057, 0.025358], [0.12918293, 0.394962], [0.05400711, 0.54831], [0.02257859, 0.169017]], [1, [44.38520603, 0.000289], [23.85822456, -0.004068], [12.73507149, 0.031182], [6.00842867, -0.242448], [3.96301478, 0.198909], [2.13751474, 0.720192], [1.20712576, 0.162963], [0.62000194, -0.788053], [0.30900057, -0.456042], [0.12918293, 0.594094], [0.05400711, 0.321239], [0.02257859, -0.002282]], [1, [44.38520603, 0.000322], [23.85822456, -0.006293], [12.73507149, 0.061433], [6.00842867, -0.709428], [3.96301478, 1.230546], [2.13751474, 1.099591], [1.20712576, -1.80149], [0.62000194, -0.680724], [0.30900057, 1.665036], [0.12918293, -0.194409], [0.05400711, -0.605253], [0.02257859, 0.020232]], [1, [44.38520603, -0.006431], [23.85822456, 0.02841], [12.73507149, -0.038493], [6.00842867, -0.726428], [3.96301478, 2.460211], [2.13751474, -1.502353], [1.20712576, -1.404761], [0.62000194, 2.497509], [0.30900057, -1.029217], [0.12918293, -0.611426], [0.05400711, 0.750291], [0.02257859, -0.038783]], [1, [0.02257859, 1.0]], [1, [0.00943936, 1.0]], [2, [29.31465998, -0.000519], [13.63067536, -0.007186], [8.04907964, 0.095441], [3.25682476, 0.170565], [1.474054, 0.27882], [0.66141289, 0.324798], [0.29673638, 0.280135], [0.13456087, 0.172066], [0.06095666, 0.058237], [0.02784531, 0.004588]], [2, [29.31465998, 0.00281], [13.63067536, -0.006479], [8.04907964, -0.060988], [3.25682476, -0.258291], [1.474054, -0.49009], [0.66141289, 0.014554], [0.29673638, 0.352182], [0.13456087, 0.382358], [0.06095666, 0.172767], [0.02784531, 0.017366]], [2, [29.31465998, 0.007744], [13.63067536, -0.037639], [8.04907964, 0.009879], [3.25682476, -0.574581], [1.474054, -0.215187], [0.66141289, 0.874455], [0.29673638, 0.174962], [0.13456087, -0.439503], [0.06095666, -0.344031], [0.02784531, -0.031851]], [2, [29.31465998, -0.001945], [13.63067536, 0.029001], [8.04907964, -0.27627], [3.25682476, -0.946826], [1.474054, 1.28698], [0.66141289, 0.065529], [0.29673638, -0.957094], [0.13456087, 0.325461], [0.06095666, 0.369531], [0.02784531, 0.058554]], [2, [0.02784531, 1.0]], [2, [0.01271987, 1.0]], [3, [2.750207, 1.0]], [3, [0.966241, 1.0]], [3, [0.339471, 1.0]], [3, [0.11926688, 1.0]], [4, [2.807857, 1.0]], [4, [1.018064, 1.0]], [4, [0.36912644, 1.0]], [5, [2.388057, 1.0]], [5, [0.8658542, 1.0]]]}
ecp = {'O': [2, [[-1, [[], [[10.27717748, 6.0]], [[15.99566749, 1232.50197768], [10.46901775, -696.47008301], [14.6384801, -2654.22657081], [12.57591181, 2101.67732548]], [[7.77739102, 61.66306486]]]], [0, [[], [], [[12.39426073, -656683.37638839], [12.38126171, 657858.57667068], [8.57671033, 511.50098405], [9.89256508, -2579.54665641], [28.05641604, -57.68129584], [17.24753607, 970.30940152]], []]], [1, [[], [], [[14.78918914, -363027.24258186], [14.82014018, 361852.52314043], [22.89622221, -1300.20069256], [8.51331893, -181.96869573], [11.48609758, 2194.87589959], [27.22017524, 451.19906206]], []]]]], 'Ti': [10, [[-1, [[], [[8.52499277, 12.0]], [[15.2433413, 2048.39512837], [9.82605516, -812.71625987], [13.73638629, -6663.62886396], [12.6545051, 5396.93874773]], [[7.54790686, 102.29991323]]]], [0, [[], [], [[6.07854372, -5355.67455847], [6.60870356, 4802.76911085], [5.40803832, 1304.66429039], [10.43037595, -1133.61681175], [18.40796253, -258.77562194], [15.384288, 672.53886697]], []]], [1, [[], [], [[9.60319864, 56981.17339652], [9.66270511, -57002.97844363], [15.06515908, 1335.72576887], [16.36599976, -813.49634683], [7.86420177, -720.45341501], [10.25452653, 239.69852194]], []]], [2, [[], [], [[10.56650824, -4262.72074057], [2.71368379, -1.34753473], [9.33780917, 1569.82864567], [31.60560687, -0.4538755], [12.28030141, 5034.44351544], [13.3677017, -2350.67846378]], []]]]]}
CPU time:         0.52


******** <class 'pyscf.scf.rohf.ROHF'> flags ********
method = ROHF
initial guess = minao
damping factor = 0
level shift factor = 1000.0
DIIS = <class 'pyscf.scf.diis.CDIIS'>
DIIS start cycle = 1
DIIS space = 8
SCF tol = 1e-09
SCF gradient tol = None
max. SCF cycles = 50
direct_scf = True
direct_scf_tol = 1e-13
chkfile to save SCF result = /projects/bamu3429/BENCHMARK/fresh_atoms/MRPT/vqz/monoxides/TiO/tmpPyvgLO
max_memory 4000 MB (current use 85 MB)
num. doubly occ = 8  num. singly occ = 2
Set gradient conv threshold to 3.16228e-05
init E= -73.2771945886642
  HOMO = 499.881878198131  LUMO = 1000.01246113738
cycle= 1 E= -73.2771945886641  delta_E= 8.53e-14  |g|= 8.28e-06  |ddm|= 2.75e-08
  HOMO = -0.118121804478389  LUMO = 0.0124611374138506
Extra cycle  E= -73.2771945886816  delta_E= -1.75e-11  |g|= 2.46e-06  |ddm|= 1.01e-05
converged SCF energy = -73.2771945886816
**** MO energy ****
                Roothaan           | alpha              | beta
MO #1   energy= -2.96851483113947  | -3.00773047615484  | -2.92929919159509  occ= 2
MO #2   energy= -1.88781054207614  | -1.90210698571811  | -1.8735140990807   occ= 2
MO #3   energy= -1.85611517273886  | -1.9177480270636   | -1.7944823184141   occ= 2
MO #4   energy= -1.85611517273886  | -1.91774802706361  | -1.79448231841411  occ= 2
MO #5   energy= -1.1534090591789   | -1.15556529545894  | -1.15125282268119  occ= 2
MO #6   energy= -0.45918496002646  | -0.464353908935108 | -0.454015988656886 occ= 2
MO #7   energy= -0.442689112089037 | -0.445346458484621 | -0.440031765693448 occ= 2
MO #8   energy= -0.442689112089035 | -0.445346458484621 | -0.440031765693448 occ= 2
MO #9   energy= -0.123553749352897 | -0.265307407989587 | 0.0181999748770682 occ= 1
MO #10  energy= -0.118121804478389 | -0.458912482593032 | 0.222668543034355  occ= 1
MO #11  energy= 0.0124611374138506 | 0.00695817870620461 | 0.0179640961214962 occ= 0
MO #12  energy= 0.0124611374138539 | 0.00695817870620364 | 0.0179640961214949 occ= 0
MO #13  energy= 0.0153652527074303 | 0.0135931125010641 | 0.017137394177748  occ= 0
MO #14  energy= 0.0246946769511176 | 0.0236716249652665 | 0.0257176866783099 occ= 0
MO #15  energy= 0.0372083410627152 | 0.0369488680284936 | 0.0374678140969372 occ= 0
MO #16  energy= 0.037699639790818  | 0.0375155778110541 | 0.0378836930360568 occ= 0
MO #17  energy= 0.040266252141017  | 0.037077359980441  | 0.0434551443015952 occ= 0
MO #18  energy= 0.0402662521410205 | 0.0370773599804391 | 0.0434551443015998 occ= 0
MO #19  energy= 0.0426506237679529 | 0.0417502886208033 | 0.0435509593890899 occ= 0
MO #20  energy= 0.0443364152780435 | 0.0338194646187858 | 0.0548533659373028 occ= 0
MO #21  energy= 0.0443364152780456 | 0.0338194646187896 | 0.0548533659373022 occ= 0
MO #22  energy= 0.0615595066616071 | 0.0489916833347671 | 0.0741273292269642 occ= 0
MO #23  energy= 0.0951928928667023 | 0.0876993826130917 | 0.102686403120311  occ= 0
MO #24  energy= 0.109821441601927  | 0.106176072054511  | 0.113466811149343  occ= 0
MO #25  energy= 0.109821441601936  | 0.106176072054519  | 0.113466811149354  occ= 0
MO #26  energy= 0.111948409831548  | 0.105999460019337  | 0.117897324409057  occ= 0
MO #27  energy= 0.118024293150716  | 0.11391098379065   | 0.12213774547241   occ= 0
MO #28  energy= 0.123806016382697  | 0.11999823032694   | 0.127613785144524  occ= 0
MO #29  energy= 0.151208756125073  | 0.1377038098087    | 0.164713702441448  occ= 0
MO #30  energy= 0.151208756125105  | 0.137703809808734  | 0.164713702441476  occ= 0
MO #31  energy= 0.154158979152898  | 0.143763978067337  | 0.164554002916236  occ= 0
MO #32  energy= 0.165770101786438  | 0.157429278592878  | 0.174110924979999  occ= 0
MO #33  energy= 0.216679989301575  | 0.212396786662894  | 0.220963191940255  occ= 0
MO #34  energy= 0.216679989301915  | 0.212396786663158  | 0.22096319194067   occ= 0
MO #35  energy= 0.226909798672919  | 0.217183184107164  | 0.236636413238678  occ= 0
MO #36  energy= 0.226909798672926  | 0.217183184107194  | 0.236636413238658  occ= 0
MO #37  energy= 0.233545360227345  | 0.230617376426072  | 0.236473341759778  occ= 0
MO #38  energy= 0.342645683368133  | 0.337219898708583  | 0.34807145683068   occ= 0
MO #39  energy= 0.422188315394428  | 0.408658854970876  | 0.435717774645283  occ= 0
MO #40  energy= 0.4368001124094    | 0.428482174080848  | 0.445118050737955  occ= 0
MO #41  energy= 0.4368001124094    | 0.428482174080846  | 0.445118050737953  occ= 0
MO #42  energy= 0.437303964021549  | 0.423425853857805  | 0.451182180974823  occ= 0
MO #43  energy= 0.440348369336373  | 0.433177897234669  | 0.447518841438076  occ= 0
MO #44  energy= 0.444960557042968  | 0.43228563343326   | 0.457635480652674  occ= 0
MO #45  energy= 0.44496055704299   | 0.432285633433282  | 0.457635480652695  occ= 0
MO #46  energy= 0.475498457138248  | 0.449200123677034  | 0.501796848752458  occ= 0
MO #47  energy= 0.52219623476487   | 0.509297849705159  | 0.535094629445289  occ= 0
MO #48  energy= 0.522983200716282  | 0.515826190423471  | 0.530140211009092  occ= 0
MO #49  energy= 0.533294505296655  | 0.525213325296382  | 0.541375685296909  occ= 0
MO #50  energy= 0.533294505297671  | 0.525213325297348  | 0.541375685297976  occ= 0
MO #51  energy= 0.573210587367728  | 0.563952030013302  | 0.582469147224173  occ= 0
MO #52  energy= 0.656359573964104  | 0.654417789493338  | 0.658301354163771  occ= 0
MO #53  energy= 0.676469398733775  | 0.670902868374033  | 0.682035923045482  occ= 0
MO #54  energy= 0.680693974671181  | 0.67621847239427   | 0.685169476948093  occ= 0
MO #55  energy= 0.680693974671194  | 0.676218472394277  | 0.685169476948103  occ= 0
MO #56  energy= 0.680948715827553  | 0.678242668202263  | 0.683654763452841  occ= 0
MO #57  energy= 0.757877973338014  | 0.753612008250767  | 0.762143938425259  occ= 0
MO #58  energy= 0.757877973338085  | 0.753612008250813  | 0.762143938425351  occ= 0
MO #59  energy= 0.963330531661655  | 0.959884900930889  | 0.966776163919754  occ= 0
MO #60  energy= 1.09467549901617   | 1.08844806838278   | 1.10090292918506   occ= 0
MO #61  energy= 1.23975032483668   | 1.22916407742616   | 1.25033657224719   occ= 0
MO #62  energy= 1.2397503248371    | 1.22916407742657   | 1.25033657224762   occ= 0
MO #63  energy= 1.26046516621318   | 1.24616946321983   | 1.27476085506589   occ= 0
MO #64  energy= 1.26366114808515   | 1.25919131053796   | 1.26813098563233   occ= 0
MO #65  energy= 1.29598439303171   | 1.27733946983905   | 1.31462931622436   occ= 0
MO #66  energy= 1.29598439303171   | 1.27733946983906   | 1.31462931622436   occ= 0
MO #67  energy= 1.34135184038536   | 1.3341307554483    | 1.34857292532242   occ= 0
MO #68  energy= 1.34135184038545   | 1.33413075544839   | 1.34857292532251   occ= 0
MO #69  energy= 1.36733401144373   | 1.36129508169279   | 1.37337294119467   occ= 0
MO #70  energy= 1.36733401144373   | 1.36129508169279   | 1.37337294119467   occ= 0
MO #71  energy= 1.37361913194307   | 1.36551009833054   | 1.38172816552165   occ= 0
MO #72  energy= 1.53782480358478   | 1.53151838196897   | 1.54413122524137   occ= 0
MO #73  energy= 1.60046043257017   | 1.59085158671128   | 1.61006927842907   occ= 0
MO #74  energy= 1.60046043257045   | 1.59085158671153   | 1.61006927842937   occ= 0
MO #75  energy= 1.6066749838708    | 1.59668602130946   | 1.61666396106698   occ= 0
MO #76  energy= 1.60891029077095   | 1.60488048397568   | 1.61294009756622   occ= 0
MO #77  energy= 1.64759425598279   | 1.64702382166625   | 1.64816469029933   occ= 0
MO #78  energy= 1.64789892434176   | 1.64685260399518   | 1.64894524453377   occ= 0
MO #79  energy= 1.68327159399659   | 1.67148021791694   | 1.69506296817605   occ= 0
MO #80  energy= 1.6833181690241    | 1.67147768480182   | 1.69515865324639   occ= 0
MO #81  energy= 1.71603869935185   | 1.71222445784963   | 1.71985294016943   occ= 0
MO #82  energy= 1.72523072825702   | 1.72109321200669   | 1.72936824450734   occ= 0
MO #83  energy= 1.72523072825703   | 1.72109321200669   | 1.72936824450735   occ= 0
MO #84  energy= 1.84334497435809   | 1.8358422575095    | 1.85084769120667   occ= 0
MO #85  energy= 1.84334497435809   | 1.8358422575095    | 1.85084769120667   occ= 0
MO #86  energy= 1.8603706284128    | 1.85485641716938   | 1.86588483918297   occ= 0
MO #87  energy= 2.04532057269155   | 2.01976929796042   | 2.07087186125932   occ= 0
MO #88  energy= 2.05191132243515   | 2.0452050935148    | 2.0586175513555    occ= 0
MO #89  energy= 2.08771829282967   | 2.0831208445393    | 2.09231574112004   occ= 0
MO #90  energy= 2.08771829282968   | 2.08312084453931   | 2.09231574112005   occ= 0
MO #91  energy= 2.19577586536929   | 2.18996843221176   | 2.20158329792707   occ= 0
MO #92  energy= 2.30299246008613   | 2.29338262754252   | 2.31260229298898   occ= 0
MO #93  energy= 2.45745726664728   | 2.4253581557563    | 2.48955638835707   occ= 0
MO #94  energy= 2.47271145445634   | 2.4676726576546    | 2.47775025125808   occ= 0
MO #95  energy= 2.50552139405312   | 2.50341991815604   | 2.5076228699502    occ= 0
MO #96  energy= 2.50552139405325   | 2.50341991815617   | 2.50762286995034   occ= 0
MO #97  energy= 2.82342290518352   | 2.81832912524662   | 2.82851668528151   occ= 0
MO #98  energy= 3.23838481843003   | 3.23252373767817   | 3.2442458991819    occ= 0
MO #99  energy= 3.23838481843004   | 3.23252373767818   | 3.2442458991819    occ= 0
MO #100 energy= 3.45074782289205   | 3.44236852348145   | 3.45912712207684   occ= 0
MO #101 energy= 3.47058776147641   | 3.43435206066433   | 3.5068234622885    occ= 0
MO #102 energy= 3.47058776147642   | 3.43435206066436   | 3.50682346228849   occ= 0
MO #103 energy= 3.47504097322952   | 3.46743102209212   | 3.48265092436692   occ= 0
MO #104 energy= 3.4750409732296    | 3.46743102209218   | 3.482650924367     occ= 0
MO #105 energy= 3.49720567430556   | 3.47271605687158   | 3.52169529549227   occ= 0
MO #106 energy= 3.50204165769383   | 3.49846997266916   | 3.50561334271852   occ= 0
MO #107 energy= 3.68590214058995   | 3.68547954870174   | 3.68632473247818   occ= 0
MO #108 energy= 3.68590224147069   | 3.68547900872275   | 3.68632547421092   occ= 0
MO #109 energy= 3.77736440486794   | 3.77589382627002   | 3.77883498346586   occ= 0
MO #110 energy= 3.77736440486794   | 3.77589382627002   | 3.77883498346586   occ= 0
MO #111 energy= 3.97140088054674   | 3.97005635404568   | 3.97274540704779   occ= 0
MO #112 energy= 3.97252697796496   | 3.96680187253199   | 3.97825208401886   occ= 0
MO #113 energy= 3.99305960071322   | 3.99115188907685   | 3.99496731234919   occ= 0
MO #114 energy= 4.06442707371769   | 4.05762719845032   | 4.07122694898505   occ= 0
MO #115 energy= 4.06442707371776   | 4.05762719845039   | 4.07122694898513   occ= 0
MO #116 energy= 4.10853278263722   | 4.10834339896338   | 4.10872216631105   occ= 0
MO #117 energy= 4.10853278263722   | 4.10834339896338   | 4.10872216631105   occ= 0
MO #118 energy= 4.15492142994374   | 4.15192677531825   | 4.1579160846612    occ= 0
MO #119 energy= 4.27309529387029   | 4.27280940965429   | 4.27338117808629   occ= 0
MO #120 energy= 4.27326442152882   | 4.27203029519604   | 4.27449854786642   occ= 0
MO #121 energy= 4.29987382668532   | 4.2980613535381    | 4.30168629983256   occ= 0
MO #122 energy= 4.29987382668533   | 4.2980613535381    | 4.30168629983255   occ= 0
MO #123 energy= 4.35850968699253   | 4.35526432910688   | 4.36175504494742   occ= 0
MO #124 energy= 4.40705231623439   | 4.3990967652368    | 4.41500786723196   occ= 0
MO #125 energy= 4.40705231623458   | 4.39909676523699   | 4.41500786723217   occ= 0
MO #126 energy= 4.59017774358006   | 4.58935876051021   | 4.5909967266499    occ= 0
MO #127 energy= 4.59101130268182   | 4.58805693607221   | 4.59396566951281   occ= 0
MO #128 energy= 4.71356935232184   | 4.7078508288972    | 4.71928787574289   occ= 0
MO #129 energy= 4.82843912408596   | 4.81640071968248   | 4.84047752848945   occ= 0
MO #130 energy= 4.82843912408597   | 4.81640071968249   | 4.84047752848946   occ= 0
MO #131 energy= 4.87136339926562   | 4.86324103105196   | 4.87948576748934   occ= 0
MO #132 energy= 4.87136539354216   | 4.86324980834653   | 4.87948097873779   occ= 0
MO #133 energy= 4.87512729743915   | 4.86837558605773   | 4.88187900882057   occ= 0
MO #134 energy= 4.87512729743923   | 4.8683755860578    | 4.88187900882066   occ= 0
MO #135 energy= 4.96759992045092   | 4.94789510482611   | 4.98730473607571   occ= 0
MO #136 energy= 4.9676145826371    | 4.94796032049237   | 4.98726884248339   occ= 0
MO #137 energy= 5.01405158271542   | 5.00237826141323   | 5.02572490401763   occ= 0
MO #138 energy= 5.01405158271543   | 5.00237826141323   | 5.02572490401764   occ= 0
MO #139 energy= 5.13909214321265   | 5.13570282585228   | 5.14248146043041   occ= 0
MO #140 energy= 5.19351568543646   | 5.19043158854058   | 5.19659978233234   occ= 0
MO #141 energy= 5.20021887437182   | 5.1880598048663    | 5.2123779437156    occ= 0
MO #142 energy= 5.22071298340758   | 5.21537456115943   | 5.22605140565571   occ= 0
MO #143 energy= 5.22071298340759   | 5.21537456115945   | 5.22605140565572   occ= 0
MO #144 energy= 5.4644366262323    | 5.46110897065745   | 5.46776428179935   occ= 0
MO #145 energy= 5.7372445518071    | 5.7340107893422    | 5.74047831427311   occ= 0
MO #146 energy= 5.74476335562395   | 5.74160026267037   | 5.74792644857754   occ= 0
MO #147 energy= 5.74476335562396   | 5.74160026267038   | 5.74792644857755   occ= 0
MO #148 energy= 5.7789995475495    | 5.77630094445111   | 5.78169815064791   occ= 0
MO #149 energy= 5.78067668480068   | 5.76554849403785   | 5.79580488008756   occ= 0
MO #150 energy= 6.04772237626464   | 6.04354515097631   | 6.05189960155296   occ= 0
MO #151 energy= 6.04772237626465   | 6.04354515097632   | 6.05189960155297   occ= 0
MO #152 energy= 6.56012576174271   | 6.534598983301     | 6.58565254311625   occ= 0
MO #153 energy= 6.56052633544808   | 6.55649222961676   | 6.56456044127942   occ= 0
MO #154 energy= 6.83167977687804   | 6.82792333184003   | 6.83543622191733   occ= 0
MO #155 energy= 7.54966992286622   | 7.53574363258855   | 7.56359621340893   occ= 0
MO #156 energy= 7.86943090267736   | 7.86364268375929   | 7.87521912159545   occ= 0
MO #157 energy= 7.86943090267746   | 7.86364268375938   | 7.87521912159555   occ= 0
MO #158 energy= 8.97720480298986   | 8.97024087346353   | 8.98416873245527   occ= 0
MO #159 energy= 9.26166912426655   | 9.23177018517084   | 9.2915680633623    occ= 0
MO #160 energy= 9.26166912426656   | 9.23177018517084   | 9.2915680633623    occ= 0
MO #161 energy= 9.31078443623669   | 9.30654541961935   | 9.31502345285405   occ= 0
MO #162 energy= 9.31187895815011   | 9.28686379193057   | 9.33689412436902   occ= 0
MO #163 energy= 9.47656707661662   | 9.46998399128764   | 9.48315016194563   occ= 0
MO #164 energy= 9.47656707661676   | 9.46998399128777   | 9.48315016194577   occ= 0
MO #165 energy= 9.93608294508351   | 9.93186424760133   | 9.94030164256572   occ= 0
MO #166 energy= 9.93608294508367   | 9.93186424760148   | 9.94030164256587   occ= 0
MO #167 energy= 10.0348280042805   | 10.0311818650112   | 10.0384741435534   occ= 0
MO #168 energy= 10.6583028072277   | 10.6582514566842   | 10.6583541577711   occ= 0
MO #169 energy= 10.658302817527    | 10.6582514583866   | 10.6583541766674   occ= 0
MO #170 energy= 10.7267584004473   | 10.7257561111985   | 10.7277606897171   occ= 0
MO #171 energy= 10.7627239418152   | 10.7626212790999   | 10.7628266045304   occ= 0
MO #172 energy= 10.7627239418152   | 10.7626212790999   | 10.7628266045304   occ= 0
MO #173 energy= 10.9680740765709   | 10.9679847737523   | 10.9681633793895   occ= 0
MO #174 energy= 10.9683094390354   | 10.9681259029291   | 10.9684929751445   occ= 0
MO #175 energy= 11.0058075839032   | 11.0052245633847   | 11.0063906044217   occ= 0
MO #176 energy= 11.0058075839032   | 11.0052245633847   | 11.0063906044218   occ= 0
MO #177 energy= 11.3341375623549   | 11.3316217746254   | 11.3366533501076   occ= 0
MO #178 energy= 11.4212391925631   | 11.409927987866    | 11.4325503972602   occ= 0
MO #179 energy= 11.4212391925633   | 11.4099279878662   | 11.4325503972604   occ= 0
MO #180 energy= 11.6226160483762   | 11.6225361234086   | 11.6226959733439   occ= 0
MO #181 energy= 11.6226160483763   | 11.6225361234086   | 11.6226959733439   occ= 0
MO #182 energy= 11.7560593312679   | 11.7558965480411   | 11.7562221144948   occ= 0
MO #183 energy= 11.7564116933622   | 11.7559791573877   | 11.7568442293427   occ= 0
MO #184 energy= 11.7597396477512   | 11.7559069410919   | 11.7635723544363   occ= 0
MO #185 energy= 12.2687377661967   | 12.2671924279294   | 12.270283104464    occ= 0
MO #186 energy= 12.2687377661967   | 12.2671924279293   | 12.270283104464    occ= 0
MO #187 energy= 12.6715204069054   | 12.671436532105    | 12.6716042817058   occ= 0
MO #188 energy= 12.6716511999096   | 12.6715136723935   | 12.6717887274283   occ= 0
MO #189 energy= 12.8145417508713   | 12.812330116422    | 12.8167533853201   occ= 0
MO #190 energy= 13.0406202335781   | 13.0363810950542   | 13.0448593721027   occ= 0
MO #191 energy= 13.0592698407269   | 13.0583889099834   | 13.0601507714704   occ= 0
MO #192 energy= 13.059269840727    | 13.0583889099834   | 13.0601507714705   occ= 0
MO #193 energy= 13.3071112321573   | 13.2851503881118   | 13.3290720762028   occ= 0
MO #194 energy= 13.3071458729741   | 13.2851291807358   | 13.3291625652638   occ= 0
MO #195 energy= 13.3193900976636   | 13.3060767417861   | 13.3327034535412   occ= 0
MO #196 energy= 13.3193900976636   | 13.3060767417861   | 13.3327034535412   occ= 0
MO #197 energy= 13.4282775821359   | 13.4244968450272   | 13.4320583192446   occ= 0
MO #198 energy= 13.4378470189254   | 13.4225425126526   | 13.4531515257772   occ= 0
MO #199 energy= 13.8555803064972   | 13.8484411182572   | 13.8627194947372   occ= 0
MO #200 energy= 13.8555803064972   | 13.8484411182571   | 13.8627194947372   occ= 0
MO #201 energy= 14.1339398032721   | 14.1230902837766   | 14.1447893227752   occ= 0
MO #202 energy= 14.1339836486989   | 14.1230879481864   | 14.1448793492114   occ= 0
MO #203 energy= 14.1347631564541   | 14.1185938146754   | 14.1509324982328   occ= 0
MO #204 energy= 14.1347631564541   | 14.1185938146754   | 14.1509324982328   occ= 0
MO #205 energy= 14.2199727885727   | 14.2119865054341   | 14.2279590717114   occ= 0
MO #206 energy= 14.2199727885727   | 14.2119865054341   | 14.2279590717115   occ= 0
MO #207 energy= 14.4132177633713   | 14.4093953729749   | 14.4170401537665   occ= 0
MO #208 energy= 14.4461891062577   | 14.443332498144    | 14.4490457143715   occ= 0
MO #209 energy= 14.4592068294846   | 14.4488882910863   | 14.4695253678843   occ= 0
MO #210 energy= 14.6089243672101   | 14.6032083012788   | 14.6146404331414   occ= 0
MO #211 energy= 14.6089243672101   | 14.6032083012788   | 14.6146404331414   occ= 0
MO #212 energy= 14.6991959575816   | 14.6937909395454   | 14.7046009756199   occ= 0
MO #213 energy= 17.2517966786562   | 17.2475569195869   | 17.2560364377298   occ= 0
MO #214 energy= 20.5722619091101   | 20.5720631909842   | 20.5724606272362   occ= 0
 ** Mulliken pop on meta-lowdin orthogonal AOs  **
 ** Mulliken pop  **
pop of  0Ti 3s        1.99957
pop of  0Ti 4s        0.89224
pop of  0Ti 5s        0.00434
pop of  0Ti 6s        0.00255
pop of  0Ti 7s        0.00031
pop of  0Ti 8s        0.00125
pop of  0Ti 9s        0.00105
pop of  0Ti 3px       1.99917
pop of  0Ti 3py       1.99917
pop of  0Ti 3pz       1.99609
pop of  0Ti 4px       0.00712
pop of  0Ti 4py       0.00712
pop of  0Ti 4pz       0.05943
pop of  0Ti 5px       0.00017
pop of  0Ti 5py       0.00017
pop of  0Ti 5pz       0.00637
pop of  0Ti 6px       0.00005
pop of  0Ti 6py       0.00005
pop of  0Ti 6pz       0.00177
pop of  0Ti 7px       0.00003
pop of  0Ti 7py       0.00003
pop of  0Ti 7pz       0.00086
pop of  0Ti 8px       0.00048
pop of  0Ti 8py       0.00048
pop of  0Ti 8pz       0.01349
pop of  0Ti 9px       0.00004
pop of  0Ti 9py       0.00004
pop of  0Ti 9pz       0.00152
pop of  0Ti 3dxy      0.98942
pop of  0Ti 3dyz      0.30499
pop of  0Ti 3dz^2     0.52189
pop of  0Ti 3dxz      0.30499
pop of  0Ti 3dx2-y2    0.00000
pop of  0Ti 4dxy      0.00738
pop of  0Ti 4dyz      0.00029
pop of  0Ti 4dz^2     0.00944
pop of  0Ti 4dxz      0.00029
pop of  0Ti 4dx2-y2    0.00000
pop of  0Ti 5dxy      0.00071
pop of  0Ti 5dyz      0.00012
pop of  0Ti 5dz^2     0.00281
pop of  0Ti 5dxz      0.00012
pop of  0Ti 5dx2-y2    0.00000
pop of  0Ti 6dxy      0.00012
pop of  0Ti 6dyz      0.00001
pop of  0Ti 6dz^2     0.00016
pop of  0Ti 6dxz      0.00001
pop of  0Ti 6dx2-y2    0.00000
pop of  0Ti 7dxy      0.00091
pop of  0Ti 7dyz      0.00000
pop of  0Ti 7dz^2     0.00112
pop of  0Ti 7dxz      0.00000
pop of  0Ti 7dx2-y2    0.00000
pop of  0Ti 8dxy      0.00004
pop of  0Ti 8dyz      0.00000
pop of  0Ti 8dz^2     0.00007
pop of  0Ti 8dxz      0.00000
pop of  0Ti 8dx2-y2    0.00000
pop of  0Ti 4fy^3     0.00003
pop of  0Ti 4fxyz     0.00000
pop of  0Ti 4fyz^2    0.00006
pop of  0Ti 4fz^3     0.00012
pop of  0Ti 4fxz^2    0.00006
pop of  0Ti 4fzx^2    0.00000
pop of  0Ti 4fx^3     0.00003
pop of  0Ti 5fy^3     0.00006
pop of  0Ti 5fxyz     0.00002
pop of  0Ti 5fyz^2    0.00064
pop of  0Ti 5fz^3     0.00088
pop of  0Ti 5fxz^2    0.00064
pop of  0Ti 5fzx^2    0.00000
pop of  0Ti 5fx^3     0.00006
pop of  0Ti 6fy^3     0.00004
pop of  0Ti 6fxyz     0.00006
pop of  0Ti 6fyz^2    0.00102
pop of  0Ti 6fz^3     0.00376
pop of  0Ti 6fxz^2    0.00102
pop of  0Ti 6fzx^2    0.00000
pop of  0Ti 6fx^3     0.00004
pop of  0Ti 7fy^3     0.00000
pop of  0Ti 7fxyz     0.00002
pop of  0Ti 7fyz^2    0.00034
pop of  0Ti 7fz^3     0.00235
pop of  0Ti 7fxz^2    0.00034
pop of  0Ti 7fzx^2    0.00000
pop of  0Ti 7fx^3     0.00000
pop of  0Ti 5g-4      0.00000
pop of  0Ti 5g-3      0.00000
pop of  0Ti 5g-2      0.00000
pop of  0Ti 5g-1      0.00000
pop of  0Ti 5g 0      0.00001
pop of  0Ti 5g 1      0.00000
pop of  0Ti 5g 2      0.00000
pop of  0Ti 5g 3      0.00000
pop of  0Ti 5g 4      0.00000
pop of  0Ti 6g-4      0.00000
pop of  0Ti 6g-3      0.00000
pop of  0Ti 6g-2      0.00001
pop of  0Ti 6g-1      0.00007
pop of  0Ti 6g 0      0.00010
pop of  0Ti 6g 1      0.00007
pop of  0Ti 6g 2      0.00000
pop of  0Ti 6g 3      0.00000
pop of  0Ti 6g 4      0.00000
pop of  0Ti 7g-4      0.00000
pop of  0Ti 7g-3      0.00000
pop of  0Ti 7g-2      0.00000
pop of  0Ti 7g-1      0.00001
pop of  0Ti 7g 0      0.00143
pop of  0Ti 7g 1      0.00001
pop of  0Ti 7g 2      0.00000
pop of  0Ti 7g 3      0.00000
pop of  0Ti 7g 4      0.00001
pop of  0Ti 6h-5      0.00000
pop of  0Ti 6h-4      0.00000
pop of  0Ti 6h-3      0.00000
pop of  0Ti 6h-2      0.00000
pop of  0Ti 6h-1      0.00000
pop of  0Ti 6h 0      0.00000
pop of  0Ti 6h 1      0.00000
pop of  0Ti 6h 2      0.00000
pop of  0Ti 6h 3      0.00000
pop of  0Ti 6h 4      0.00000
pop of  0Ti 6h 5      0.00000
pop of  0Ti 7h-5      0.00000
pop of  0Ti 7h-4      0.00000
pop of  0Ti 7h-3      0.00000
pop of  0Ti 7h-2      0.00001
pop of  0Ti 7h-1      0.00001
pop of  0Ti 7h 0      0.00016
pop of  0Ti 7h 1      0.00001
pop of  0Ti 7h 2      0.00000
pop of  0Ti 7h 3      0.00000
pop of  0Ti 7h 4      0.00000
pop of  0Ti 7h 5      0.00000
pop of  1O 2s        1.85477
pop of  1O 3s        0.00196
pop of  1O 4s        0.00036
pop of  1O 5s        0.00649
pop of  1O 6s        0.01637
pop of  1O 2px       1.67111
pop of  1O 2py       1.67111
pop of  1O 2pz       1.57733
pop of  1O 3px       0.00075
pop of  1O 3py       0.00075
pop of  1O 3pz       0.00028
pop of  1O 4px       0.00032
pop of  1O 4py       0.00032
pop of  1O 4pz       0.00070
pop of  1O 5px       0.00391
pop of  1O 5py       0.00391
pop of  1O 5pz       0.00131
pop of  1O 6px       0.00191
pop of  1O 6py       0.00191
pop of  1O 6pz       0.00467
pop of  1O 3dxy      0.00000
pop of  1O 3dyz      0.00009
pop of  1O 3dz^2     0.00013
pop of  1O 3dxz      0.00009
pop of  1O 3dx2-y2    0.00000
pop of  1O 4dxy      0.00001
pop of  1O 4dyz      0.00099
pop of  1O 4dz^2     0.00135
pop of  1O 4dxz      0.00099
pop of  1O 4dx2-y2    0.00000
pop of  1O 5dxy      0.00004
pop of  1O 5dyz      0.00309
pop of  1O 5dz^2     0.00233
pop of  1O 5dxz      0.00309
pop of  1O 5dx2-y2    0.00000
pop of  1O 6dxy      0.00094
pop of  1O 6dyz      0.00281
pop of  1O 6dz^2     0.00555
pop of  1O 6dxz      0.00281
pop of  1O 6dx2-y2    0.00000
pop of  1O 4fy^3     0.00000
pop of  1O 4fxyz     0.00000
pop of  1O 4fyz^2    0.00001
pop of  1O 4fz^3     0.00002
pop of  1O 4fxz^2    0.00001
pop of  1O 4fzx^2    0.00000
pop of  1O 4fx^3     0.00000
pop of  1O 5fy^3     0.00000
pop of  1O 5fxyz     0.00000
pop of  1O 5fyz^2    0.00014
pop of  1O 5fz^3     0.00016
pop of  1O 5fxz^2    0.00014
pop of  1O 5fzx^2    0.00000
pop of  1O 5fx^3     0.00000
pop of  1O 6fy^3     0.00000
pop of  1O 6fxyz     0.00030
pop of  1O 6fyz^2    0.00012
pop of  1O 6fz^3     0.00094
pop of  1O 6fxz^2    0.00012
pop of  1O 6fzx^2    0.00000
pop of  1O 6fx^3     0.00000
pop of  1O 5g-4      0.00000
pop of  1O 5g-3      0.00000
pop of  1O 5g-2      0.00000
pop of  1O 5g-1      0.00001
pop of  1O 5g 0      0.00001
pop of  1O 5g 1      0.00001
pop of  1O 5g 2      0.00000
pop of  1O 5g 3      0.00000
pop of  1O 5g 4      0.00000
pop of  1O 6g-4      0.00000
pop of  1O 6g-3      0.00000
pop of  1O 6g-2      0.00001
pop of  1O 6g-1      0.00000
pop of  1O 6g 0      0.00012
pop of  1O 6g 1      0.00000
pop of  1O 6g 2      0.00000
pop of  1O 6g 3      0.00000
pop of  1O 6g 4      0.00000
 ** Mulliken atomic charges  **
charge of  0Ti =      0.84670
charge of  1O =     -0.84670

******** <class 'pyscf.mcscf.mc1step.CASSCF'> flags ********
CAS (5e+3e, 9o), ncore = 5, nvir = 200
max_cycle_macro = 50
max_cycle_micro = 4
conv_tol = 1e-07
conv_tol_grad = None
orbital rotation max_stepsize = 0.02
augmented hessian ah_max_cycle = 30
augmented hessian ah_conv_tol = 1e-12
augmented hessian ah_linear dependence = 1e-14
augmented hessian ah_level shift = 0
augmented hessian ah_start_tol = 2.5
augmented hessian ah_start_cycle = 3
augmented hessian ah_grad_trust_region = 3
kf_trust_region = 3
kf_interval = 4
ci_response_space = 4
ci_grad_trust_region = 3
with_dep4 0
natorb = False
canonicalization = True
chkfile = ./scratch/180395/tmp3ALLFT
max_memory 4000 MB (current use 2218 MB)
internal_rotation = False

******** SHCI flags ********
executable             = /home/bamu3429/softwares/dice/Dice
mpiprefix              = mpirun -np 28
scratchDirectory       = ./scratch/180395
integralFile           = ./FCIDUMP
configFile             = ./input.dat
outputFile             = ./output.dat
maxIter                = 6
sweep_iter             = []
sweep_epsilon          = []
nPTiter                = 0
Stochastic             = True
fullrestart            = False
restart                = False
num_thrds              = 12
memory                 = None

CASCI E = -73.2772067289786  S^2 = 2.0000000
Set conv_tol_grad to 0.000316228
macro iter 1 (7 JK  2 micro), CASSCF E = -73.2772981894601  dE = -9.1460482e-05  S^2 = 2.0000000
               |grad[o]|=0.000149  |grad[c]|= None  |ddm|=0.0127
macro iter 2 (12 JK  3 micro), CASSCF E = -73.2783429925197  dE = -0.0010448031  S^2 = 2.0000000
               |grad[o]|=0.000733  |grad[c]|= None  |ddm|=0.0123
macro iter 3 (21 JK  4 micro), CASSCF E = -73.2933525146766  dE = -0.015009522  S^2 = 2.0000000
               |grad[o]|=0.0072  |grad[c]|= None  |ddm|=0.0357
macro iter 4 (21 JK  4 micro), CASSCF E = -73.3054057528825  dE = -0.012053238  S^2 = 2.0000000
               |grad[o]|=0.0494  |grad[c]|= None  |ddm|=0.0629
macro iter 5 (21 JK  4 micro), CASSCF E = -73.3401899470986  dE = -0.034784194  S^2 = 2.0000000
               |grad[o]|=0.0461  |grad[c]|= None  |ddm|=0.0494
macro iter 6 (21 JK  4 micro), CASSCF E = -73.3968971047772  dE = -0.056707158  S^2 = 2.0000000
               |grad[o]|=0.0847  |grad[c]|= None  |ddm|=0.0458
macro iter 7 (21 JK  4 micro), CASSCF E = -73.4193150269553  dE = -0.022417922  S^2 = 2.0000000
               |grad[o]|=0.0684  |grad[c]|= None  |ddm|=0.0452
macro iter 8 (21 JK  4 micro), CASSCF E = -73.4222873943739  dE = -0.0029723674  S^2 = 2.0000000
               |grad[o]|=0.0213  |grad[c]|= None  |ddm|=0.00813
macro iter 9 (16 JK  4 micro), CASSCF E = -73.4230399901408  dE = -0.00075259577  S^2 = 2.0000000
               |grad[o]|=0.00919  |grad[c]|= None  |ddm|=0.00739
macro iter 10 (13 JK  4 micro), CASSCF E = -73.4230623327405  dE = -2.23426e-05  S^2 = 2.0000000
               |grad[o]|=0.00209  |grad[c]|= None  |ddm|=0.00286
macro iter 11 (10 JK  2 micro), CASSCF E = -73.4230624819153  dE = -1.491748e-07  S^2 = 2.0000000
               |grad[o]|=0.000243  |grad[c]|= None  |ddm|=0.000273
macro iter 12 (12 JK  3 micro), CASSCF E = -73.4230610534776  dE = 1.4284377e-06  S^2 = 2.0000000
               |grad[o]|=0.000184  |grad[c]|= None  |ddm|=0.000871
macro iter 13 (11 JK  3 micro), CASSCF E = -73.4230633841606  dE = -2.330683e-06  S^2 = 2.0000000
               |grad[o]|=0.00184  |grad[c]|= None  |ddm|=0.00055
macro iter 14 (9 JK  2 micro), CASSCF E = -73.4230636116525  dE = -2.2749192e-07  S^2 = 2.0000000
               |grad[o]|=0.000371  |grad[c]|= None  |ddm|=0.000135
macro iter 15 (3 JK  1 micro), CASSCF E = -73.4230636156753  dE = -4.022823e-09  S^2 = 2.0000000
               |grad[o]|=3.02e-05  |grad[c]|= None  |ddm|=1.44e-05
1-step CASSCF converged in 15 macro (219 JK 48 micro) steps
CASSCF canonicalization
CASSCF energy = -73.4230636156753


--------------------------------------------------
                 ICMPSPT CALCULATION              
--------------------------------------------------

Perturbation type: MRLCC
With fully internally contracted scheme
With third order correction

Preparing necessary RDMs
......production of RDMs took      35.84 sec
Reading binary 4RDM from DICE
......reading the RDM took         28.09 sec

(GOOD) Trace 4RDM:   1680.0 =    8*    7*    6*    5
(GOOD) Trace 3RDM:    336.0 =    8*    7*    6
(GOOD) Trace 2RDM:     56.0 =    8*    7
(GOOD) Trace 1RDM:      8.0 =    8

Producing the integrals
......production of INT took    3650.91 sec

Energy_core =  -81.0592902264
Energy      =  -73.4230636157

WARNING: Have to use natural orbitals from CAASCF
         offdiagonal elements: 0.651387840507

Basic ingredients written to int/
......savings of INGREDIENTS took     807.84 sec

Second-order:
perturber CCVV --        -0.170834871
perturber CCAV --        -0.080042940
perturber ACVV --        -0.143513133
perturber CCAA --        -0.027137609
perturber AAVV --        -0.108751940
perturber CAAV --        -0.113878049
terminate called after throwing an instance of 'std::runtime_error'
  what():  No convergence!
/bin/sh: line 1: 184411 Aborted                 /projects/bamu3429/softwares/icpt/icpt MRLCC_AAAV.inp > MRLCC_AAAV.out
Traceback (most recent call last):
  File "mrpt.py", line 56, in <module>
    do_dm4=True)
  File "/projects/bamu3429/softwares/pyscf_uptodate/pyscf/icmpspt/icmpspt.py", line 1375, in icmpspt
    cumulantE4=cumulantE4, df=df, no_handcoded_E3=no_handcoded_E3)
  File "/projects/bamu3429/softwares/pyscf_uptodate/pyscf/icmpspt/icmpspt.py", line 689, in executeMRLCC
    output = check_call("%s  %s  %s > %s"%(mpiprefix, executable, infile, outfile), shell=True)
  File "/curc/sw/python/2.7.11/lib/python2.7/subprocess.py", line 540, in check_call
    raise CalledProcessError(retcode, cmd)
subprocess.CalledProcessError: Command '  /projects/bamu3429/softwares/icpt/icpt  MRLCC_AAAV.inp > MRLCC_AAAV.out' returned non-zero exit status 134
