 &FCI NORB=9 ,NELEC=10 ,MS2=4,
  ORBSYM=1,1,1,1,1,1,1,1,1,
  ISYM=1,
 &END
  6.331301624684e-01    1  1  1  1
  1.426912792416e-10    2  1  1  1
  2.938556808093e-02    2  1  2  1
  5.873759224636e-01    2  2  1  1
  2.671811379927e-10    2  2  2  1
  6.780778022102e-01    2  2  2  2
  4.523120550289e-12    3  1  1  1
  5.048019850508e-12    3  1  2  2
  2.910799236332e-02    3  1  3  1
  1.360609737431e-11    3  2  3  1
  2.979278549201e-02    3  2  3  2
  5.817113862703e-01    3  3  1  1
  1.846319182245e-10    3  3  2  1
  6.019250120438e-01    3  3  2  2
  5.309606217016e-12    3  3  3  1
  6.484108052462e-01    3  3  3  3
 -3.440720975470e-03    4  1  1  1
 -9.940430551960e-11    4  1  2  1
 -1.697943899348e-02    4  1  2  2
 -1.245356204087e-12    4  1  3  1
 -1.213121670191e-02    4  1  3  3
  1.963589893051e-02    4  1  4  1
 -5.850200828710e-11    4  2  1  1
 -2.176033319498e-03    4  2  2  1
  2.834128234303e-11    4  2  2  2
 -7.946595162258e-11    4  2  4  1
  2.319318081457e-03    4  2  4  2
 -3.358279471521e-12    4  3  1  1
 -1.993729564457e-12    4  3  2  2
 -4.671841121338e-03    4  3  3  1
  1.559950593691e-11    4  3  3  2
 -2.350145180558e-12    4  3  3  3
 -1.014814452187e-12    4  3  4  1
  4.745128734457e-03    4  3  4  3
  3.856226656392e-01    4  4  1  1
 -4.073386881914e-10    4  4  2  1
  3.119870699611e-01    4  4  2  2
 -2.672568829513e-12    4  4  3  1
  3.391613548097e-01    4  4  3  3
  6.394079903531e-02    4  4  4  1
 -2.885845704850e-10    4  4  4  2
 -5.967476142321e-12    4  4  4  3
  6.400837729069e-01    4  4  4  4
 -1.041466504473e-11    5  1  3  1
 -8.435291539109e-05    5  1  3  2
  9.215524646475e-12    5  1  4  3
  8.511413804777e-03    5  1  5  1
  4.748466725356e-12    5  2  1  1
  1.010139176582e-11    5  2  2  2
 -1.552853838568e-03    5  2  3  1
  4.916762946407e-12    5  2  3  2
  7.250971596314e-12    5  2  3  3
 -2.323190699365e-12    5  2  4  1
  1.769641451041e-03    5  2  4  3
 -9.886775339184e-12    5  2  4  4
 -2.912948402895e-11    5  2  5  1
  3.098355771642e-03    5  2  5  2
 -3.029307452310e-11    5  3  1  1
 -1.714725226651e-03    5  3  2  1
 -1.107123553851e-11    5  3  2  2
 -2.680429206415e-11    5  3  3  3
  4.999230224802e-12    5  3  4  1
 -9.006242285628e-04    5  3  4  2
  2.790072639385e-11    5  3  4  4
  4.387133092780e-03    5  3  5  3
  4.563838951918e-12    5  4  3  1
  1.636125991809e-03    5  4  3  2
  6.758907238710e-12    5  4  4  3
  5.593080993828e-03    5  4  5  1
 -2.032811185550e-11    5  4  5  2
  1.864691761830e-02    5  4  5  4
  4.063174630986e-01    5  5  1  1
 -4.519838197662e-10    5  5  2  1
  3.266665154793e-01    5  5  2  2
 -2.525779127922e-12    5  5  3  1
  3.515117698918e-01    5  5  3  3
  6.439092956744e-02    5  5  4  1
 -2.939346116744e-10    5  5  4  2
 -6.891431623639e-12    5  5  4  3
  6.685250610073e-01    5  5  4  4
 -1.310210367985e-11    5  5  5  2
  4.521050560255e-11    5  5  5  3
  7.809289001044e-01    5  5  5  5
  1.749600498777e-02    6  1  1  1
 -1.156735551557e-10    6  1  2  1
  3.012509056010e-03    6  1  2  2
  7.147725842060e-03    6  1  3  3
  9.184801098677e-03    6  1  4  1
 -3.071364870325e-11    6  1  4  2
  5.447840011811e-02    6  1  4  4
 -1.890646684946e-12    6  1  5  2
  3.622173022061e-12    6  1  5  3
  6.786044096470e-02    6  1  5  5
  1.655431325247e-02    6  1  6  1
 -3.302217669301e-10    6  2  1  1
 -2.587995800134e-03    6  2  2  1
 -4.126433367571e-10    6  2  2  2
 -3.434489118427e-10    6  2  3  3
  4.024086483989e-11    6  2  4  1
 -4.606406743359e-04    6  2  4  2
  6.984844301499e-11    6  2  4  4
  1.431744241714e-03    6  2  5  3
  7.826443047808e-11    6  2  5  5
  5.407833944128e-12    6  2  6  1
  2.772856354464e-03    6  2  6  2
 -2.562780743718e-12    6  3  1  1
  1.670129563888e-12    6  3  2  2
 -6.360873127080e-04    6  3  3  1
 -2.669459800477e-11    6  3  3  2
  1.069543466179e-12    6  3  3  3
 -3.107696270848e-12    6  3  4  1
 -6.321320113642e-04    6  3  4  3
 -1.533016826025e-11    6  3  4  4
  9.406756504156e-12    6  3  5  1
 -5.796002072073e-04    6  3  5  2
  7.592954582328e-12    6  3  5  4
 -1.669707630806e-11    6  3  5  5
 -3.104444816519e-12    6  3  6  1
  2.495033068251e-03    6  3  6  3
 -4.209896340711e-02    6  4  1  1
  1.004157234686e-10    6  4  2  1
 -2.774726851426e-02    6  4  2  2
 -3.132813777506e-02    6  4  3  3
 -1.206534762637e-02    6  4  4  1
  7.664987197616e-11    6  4  4  2
 -1.078167249229e-01    6  4  4  4
  2.259635690221e-12    6  4  5  2
 -2.745755725189e-11    6  4  5  3
 -1.269070691376e-01    6  4  5  5
 -1.523350824368e-02    6  4  6  1
 -2.239009192764e-11    6  4  6  2
  3.910084056564e-12    6  4  6  3
  4.598903424968e-02    6  4  6  4
 -4.665648084669e-12    6  5  3  1
  1.989078938907e-03    6  5  3  2
  1.616387627394e-11    6  5  4  3
  5.735024138920e-03    6  5  5  1
  3.389418959957e-12    6  5  5  2
 -1.615428987848e-12    6  5  5  3
  1.560396347770e-03    6  5  5  4
  1.681367694917e-02    6  5  6  5
  3.293819767056e-01    6  6  1  1
 -2.959926308439e-10    6  6  2  1
  2.777611150089e-01    6  6  2  2
 -3.093821207435e-12    6  6  3  1
  2.897116112147e-01    6  6  3  3
  3.622047460289e-02    6  6  4  1
 -1.826609079247e-10    6  6  4  2
 -2.815600633336e-12    6  6  4  3
  4.877016010943e-01    6  6  4  4
 -7.425668566392e-12    6  6  5  2
  4.383488225589e-11    6  6  5  3
  5.388714154470e-01    6  6  5  5
  4.628264456880e-02    6  6  6  1
  8.022206991960e-11    6  6  6  2
 -1.167904793574e-11    6  6  6  3
 -7.652424599420e-02    6  6  6  4
  4.456600783420e-01    6  6  6  6
 -4.219588181630e-10    7  1  1  1
 -3.432710310268e-03    7  1  2  1
 -4.995715710391e-10    7  1  2  2
 -4.320574552602e-10    7  1  3  3
  8.115781489336e-11    7  1  4  1
  2.295470264353e-03    7  1  4  2
  1.380021077933e-10    7  1  4  4
 -1.874075635907e-03    7  1  5  3
  1.394236031874e-10    7  1  5  5
  5.415474520965e-11    7  1  6  1
 -4.924475633852e-04    7  1  6  2
 -4.652021426805e-12    7  1  6  4
  1.031656292916e-10    7  1  6  6
  8.017451146240e-03    7  1  7  1
 -3.962578718411e-02    7  2  1  1
 -2.245285387551e-10    7  2  2  1
 -8.216783972649e-02    7  2  2  2
 -2.169271851753e-12    7  2  3  1
 -5.926650294543e-02    7  2  3  3
  1.946943534275e-02    7  2  4  1
 -8.580971811413e-11    7  2  4  2
  7.739483190161e-02    7  2  4  4
 -5.401881761028e-12    7  2  5  2
  2.497978215496e-11    7  2  5  3
  9.181322661750e-02    7  2  5  5
  1.727666865203e-02    7  2  6  1
  1.300412959770e-10    7  2  6  2
 -4.751053498993e-12    7  2  6  3
 -1.922528161511e-02    7  2  6  4
  6.312257003540e-02    7  2  6  6
  1.333808980814e-10    7  2  7  1
  4.665829808295e-02    7  2  7  2
 -2.938632821722e-11    7  3  3  1
 -5.633039619864e-03    7  3  3  2
  4.509319016607e-12    7  3  4  3
  2.053115505750e-03    7  3  5  1
 -5.308582201761e-12    7  3  5  2
  2.197909970199e-03    7  3  5  4
  1.446967680487e-11    7  3  6  3
  2.544493983548e-03    7  3  6  5
  4.927849831734e-03    7  3  7  3
  3.862480848025e-10    7  4  1  1
  4.060059311337e-03    7  4  2  1
  1.996353135465e-10    7  4  2  2
  2.585891617100e-10    7  4  3  3
  1.109668917146e-10    7  4  4  1
  5.421747674207e-03    7  4  4  2
  7.212806889900e-10    7  4  4  4
 -4.333175809625e-03    7  4  5  3
  7.992359442916e-10    7  4  5  5
  1.176134205972e-10    7  4  6  1
 -2.183564928730e-03    7  4  6  2
 -1.254245101021e-10    7  4  6  4
  2.400525293540e-12    7  4  6  5
  4.186613681018e-10    7  4  6  6
  3.411418741164e-03    7  4  7  1
  1.072470018571e-10    7  4  7  2
  2.757371331505e-02    7  4  7  4
 -3.441597084782e-12    7  5  1  1
 -3.990609404334e-12    7  5  2  2
 -2.987744147991e-03    7  5  3  1
  1.003602618156e-11    7  5  3  2
 -2.321362881591e-12    7  5  3  3
  2.991643451877e-03    7  5  4  3
  4.300086000463e-12    7  5  4  4
  9.517448388625e-12    7  5  5  1
  6.243523547848e-03    7  5  5  2
  1.905089141158e-11    7  5  5  4
  2.316514703386e-12    7  5  5  5
 -2.828840331965e-03    7  5  6  3
 -2.939345028701e-12    7  5  6  4
  7.493535352621e-11    7  5  6  5
  2.788397523882e-12    7  5  6  6
  2.892217310752e-02    7  5  7  5
  6.856583175479e-10    7  6  1  1
 -3.575359554087e-05    7  6  2  1
  5.243064730724e-10    7  6  2  2
  5.359018756963e-10    7  6  3  3
  1.320554745214e-10    7  6  4  1
 -1.998402850100e-03    7  6  4  2
  9.738258090135e-10    7  6  4  4
  1.868610810403e-03    7  6  5  3
  1.168341741357e-09    7  6  5  5
  1.915730587971e-10    7  6  6  1
  2.527257614082e-03    7  6  6  2
 -2.864308993393e-10    7  6  6  4
 -1.795137633706e-12    7  6  6  5
  8.112821506376e-10    7  6  6  6
 -1.139875058193e-04    7  6  7  1
  1.934345856993e-10    7  6  7  2
 -7.685804172693e-03    7  6  7  4
  1.667893406898e-02    7  6  7  6
  4.333119810754e-01    7  7  1  1
 -4.159473873650e-10    7  7  2  1
  3.596140868827e-01    7  7  2  2
 -3.747483215683e-12    7  7  3  1
  3.723590598421e-01    7  7  3  3
  5.714656963935e-02    7  7  4  1
 -2.499486657665e-10    7  7  4  2
 -5.255829366747e-12    7  7  4  3
  6.283911521479e-01    7  7  4  4
 -1.004118033961e-11    7  7  5  2
  1.776414942807e-11    7  7  5  3
  7.029179522316e-01    7  7  5  5
  7.172817408791e-02    7  7  6  1
  3.521719529476e-11    7  7  6  2
 -1.723289104187e-11    7  7  6  3
 -1.094555745492e-01    7  7  6  4
  5.309216475553e-01    7  7  6  6
  1.238276650905e-10    7  7  7  1
  9.221190747422e-02    7  7  7  2
  8.435072755906e-10    7  7  7  4
  1.852184593744e-12    7  7  7  5
  1.255626020578e-09    7  7  7  6
  7.444500727532e-01    7  7  7  7
  1.401158948934e-01    8  1  1  1
  2.775045598863e-10    8  1  2  1
  1.647197284175e-01    8  1  2  2
  3.286151379614e-12    8  1  3  1
  1.484528759098e-01    8  1  3  3
 -3.783546434119e-02    8  1  4  1
  1.420713831679e-10    8  1  4  2
  1.481770946389e-12    8  1  4  3
 -1.116244084433e-01    8  1  4  4
  8.843721090968e-12    8  1  5  2
 -3.611891373117e-11    8  1  5  3
 -1.295990920076e-01    8  1  5  5
 -2.812159255727e-02    8  1  6  1
 -2.138473996864e-10    8  1  6  2
  7.711487965749e-12    8  1  6  3
  2.548572401193e-02    8  1  6  4
 -8.965219198465e-02    8  1  6  6
 -3.059383772950e-10    8  1  7  1
 -7.171835898183e-02    8  1  7  2
 -1.551023866167e-10    8  1  7  4
 -1.531214734763e-12    8  1  7  5
 -2.083621720778e-10    8  1  7  6
 -1.163150697489e-01    8  1  7  7
  1.584965860716e-01    8  1  8  1
 -4.241965637759e-10    8  2  1  1
  1.432860335589e-02    8  2  2  1
 -8.580496670828e-10    8  2  2  2
 -6.427244036923e-10    8  2  3  3
  1.984367669849e-10    8  2  4  1
 -1.402066354574e-03    8  2  4  2
  7.032551290604e-10    8  2  4  4
 -8.611909788352e-04    8  2  5  3
  8.042285097133e-10    8  2  5  5
  1.378241798293e-10    8  2  6  1
 -2.114552310776e-03    8  2  6  2
 -1.529418038727e-10    8  2  6  4
  5.585435275400e-10    8  2  6  6
 -3.103173079503e-03    8  2  7  1
  3.936209454729e-10    8  2  7  2
 -5.587632065963e-04    8  2  7  4
 -3.255061815594e-04    8  2  7  6
  7.721488838109e-10    8  2  7  7
 -7.353991055996e-10    8  2  8  1
  1.292635414667e-02    8  2  8  2
 -8.975971947073e-12    8  3  1  1
 -1.306007689045e-11    8  3  2  2
  1.316840141472e-02    8  3  3  1
 -5.449243591816e-11    8  3  3  2
 -1.351483157030e-11    8  3  3  3
  2.519285865975e-12    8  3  4  1
 -2.305944319203e-03    8  3  4  3
  7.656378564432e-12    8  3  4  4
 -2.296954509136e-12    8  3  5  1
 -4.662972601391e-04    8  3  5  2
  3.058282344600e-12    8  3  5  4
  8.225889193649e-12    8  3  5  5
  2.050711986203e-12    8  3  6  1
 -1.466711167987e-03    8  3  6  3
 -1.695661827808e-12    8  3  6  4
  1.146755323512e-11    8  3  6  5
  6.822314920599e-12    8  3  6  6
  5.246466006771e-12    8  3  7  2
  2.278729349823e-03    8  3  7  5
  8.338251503868e-12    8  3  7  7
 -1.075758492317e-11    8  3  8  1
  1.295996450143e-02    8  3  8  3
 -6.502215058836e-02    8  4  1  1
  8.258337512528e-11    8  4  2  1
 -4.891291706358e-02    8  4  2  2
 -5.249836064447e-02    8  4  3  3
 -1.799085721962e-02    8  4  4  1
  9.774138676271e-11    8  4  4  2
  1.674833058844e-12    8  4  4  3
 -7.205005464729e-02    8  4  4  4
 -7.887196883020e-12    8  4  5  3
 -7.191032011068e-02    8  4  5  5
 -8.717942363055e-03    8  4  6  1
  2.573759538457e-11    8  4  6  2
  2.728182981325e-12    8  4  6  3
  1.220468527254e-02    8  4  6  4
 -3.726862793679e-02    8  4  6  6
  2.271815244103e-11    8  4  7  1
 -5.483265094546e-03    8  4  7  2
 -9.669080456103e-11    8  4  7  4
 -2.479854217301e-10    8  4  7  6
 -7.549856229078e-02    8  4  7  7
  3.579169082306e-03    8  4  8  1
 -5.610524838033e-11    8  4  8  2
  3.468349275131e-02    8  4  8  4
 -7.186338306013e-12    8  5  3  1
 -9.904761783907e-04    8  5  3  2
 -1.404157233557e-12    8  5  4  3
 -1.186717201584e-02    8  5  5  1
  5.960331658785e-11    8  5  5  2
 -6.360969981971e-03    8  5  5  4
 -1.896862594241e-11    8  5  6  3
 -8.639960813622e-03    8  5  6  5
 -2.852283045821e-03    8  5  7  3
  5.296991245338e-11    8  5  7  5
  2.557186143619e-12    8  5  8  3
  1.830952539525e-02    8  5  8  5
 -8.230734006633e-02    8  6  1  1
  1.006581933650e-10    8  6  2  1
 -5.918531768590e-02    8  6  2  2
  1.423994943088e-12    8  6  3  1
 -6.287976452035e-02    8  6  3  3
 -1.385525521234e-02    8  6  4  1
  5.987374477644e-11    8  6  4  2
  1.523496418297e-12    8  6  4  3
 -1.134885101528e-01    8  6  4  4
  2.264458257279e-12    8  6  5  2
  1.142613327701e-12    8  6  5  3
 -1.385954188696e-01    8  6  5  5
 -2.805578654760e-02    8  6  6  1
  4.813376632879e-11    8  6  6  2
  5.426817483197e-12    8  6  6  3
  3.419041219013e-02    8  6  6  4
 -8.921104683428e-02    8  6  6  6
  4.867805225014e-12    8  6  7  1
 -2.033846928936e-02    8  6  7  2
 -2.854585452184e-10    8  6  7  4
 -3.765613554568e-10    8  6  7  6
 -1.468916404099e-01    8  6  7  7
  2.387439976003e-02    8  6  8  1
 -1.672005775721e-10    8  6  8  2
 -1.566872927822e-12    8  6  8  3
  2.488489383363e-02    8  6  8  4
  6.045597143950e-02    8  6  8  6
  3.022166552191e-10    8  7  1  1
 -6.408972217290e-03    8  7  2  1
  2.934088161305e-10    8  7  2  2
  2.561235760644e-10    8  7  3  3
  8.703164125053e-11    8  7  4  1
 -9.661055003753e-04    8  7  4  2
  6.629835025700e-10    8  7  4  4
  1.746661929843e-03    8  7  5  3
  8.338809431118e-10    8  7  5  5
  1.275322211156e-10    8  7  6  1
 -1.815515792674e-04    8  7  6  2
 -2.412554324220e-10    8  7  6  4
 -1.632685772571e-12    8  7  6  5
  5.371431782967e-10    8  7  6  6
 -5.728862017553e-03    8  7  7  1
  1.896864062611e-10    8  7  7  2
 -6.867763229731e-03    8  7  7  4
  1.805204214204e-04    8  7  7  6
  8.694640287701e-10    8  7  7  7
 -2.228601163179e-10    8  7  8  1
 -4.922230117376e-04    8  7  8  2
 -1.333987592078e-10    8  7  8  4
 -2.456502340005e-10    8  7  8  6
  1.380042568347e-02    8  7  8  7
  4.806597989208e-01    8  8  1  1
 -3.129287738809e-10    8  8  2  1
  4.161057977559e-01    8  8  2  2
 -1.875468786797e-12    8  8  3  1
  4.266990206649e-01    8  8  3  3
  3.124613048299e-02    8  8  4  1
 -1.809281964976e-10    8  8  4  2
 -4.116883743017e-12    8  8  4  3
  4.984060721068e-01    8  8  4  4
 -3.892033991583e-12    8  8  5  2
  2.265797076205e-11    8  8  5  3
  5.371203615087e-01    8  8  5  5
  4.344972175724e-02    8  8  6  1
 -9.808821116969e-11    8  8  6  2
 -9.877944356317e-12    8  8  6  3
 -6.615408165251e-02    8  8  6  4
  4.243912420898e-01    8  8  6  6
 -1.105187058810e-10    8  8  7  1
  3.111834371578e-02    8  8  7  2
  4.830473476950e-10    8  8  7  4
 -1.916778180450e-12    8  8  7  5
  9.070668544541e-10    8  8  7  6
  5.547923969721e-01    8  8  7  7
 -1.592247757386e-02    8  8  8  1
  2.582203685185e-10    8  8  8  2
 -6.758646555069e-02    8  8  8  4
 -1.063606051077e-01    8  8  8  6
  5.999093121463e-10    8  8  8  7
  5.106930195878e-01    8  8  8  8
  3.202080103200e-12    9  1  1  1
  6.115111780110e-12    9  1  2  2
  7.522950726403e-03    9  1  3  1
  2.279957861812e-11    9  1  3  2
  5.334043187228e-12    9  1  3  3
 -2.487776473618e-12    9  1  4  1
 -2.411395601881e-05    9  1  4  3
 -1.087887791808e-11    9  1  4  4
  2.768370212411e-12    9  1  5  1
  1.670975343791e-03    9  1  5  2
 -1.483715143148e-12    9  1  5  4
 -1.330674667998e-11    9  1  5  5
 -1.993025122669e-12    9  1  6  1
 -1.937533785727e-03    9  1  6  3
  2.627848223760e-12    9  1  6  4
  5.986732262647e-12    9  1  6  5
 -8.068633708916e-12    9  1  6  6
 -4.686015995731e-12    9  1  7  2
 -2.250589416930e-11    9  1  7  3
  2.307438405681e-03    9  1  7  5
 -1.202959683842e-11    9  1  7  7
  8.789495413750e-12    9  1  8  1
  7.733688039384e-03    9  1  8  3
  1.148480192383e-12    9  1  8  4
  4.697514769044e-12    9  1  8  5
  3.229198936058e-12    9  1  8  6
 -5.985380702612e-12    9  1  8  8
  1.114216236085e-02    9  1  9  1
  2.672626547259e-11    9  2  3  1
  1.183504376555e-02    9  2  3  2
 -8.534848306404e-12    9  2  4  3
 -1.276955157723e-03    9  2  5  1
 -9.593072211575e-12    9  2  5  2
 -1.596025397207e-03    9  2  5  4
 -1.469216624358e-11    9  2  6  3
 -1.839716328340e-03    9  2  6  5
 -5.568839780845e-03    9  2  7  3
 -1.474036972472e-11    9  2  7  5
 -3.341610700310e-11    9  2  8  3
  1.930518190281e-03    9  2  8  5
 -2.314918157599e-11    9  2  9  1
  8.244908877318e-03    9  2  9  2
  8.808670315670e-02    9  3  1  1
  2.747506583636e-10    9  3  2  1
  1.321086972252e-01    9  3  2  2
  4.302243856697e-12    9  3  3  1
  1.384100164646e-01    9  3  3  3
 -3.357593654383e-02    9  3  4  1
  1.272706444517e-10    9  3  4  2
  1.509964772208e-12    9  3  4  3
 -1.159017404630e-01    9  3  4  4
  7.926240284711e-12    9  3  5  2
 -2.936462061328e-11    9  3  5  3
 -1.302762842325e-01    9  3  5  5
 -2.361224099679e-02    9  3  6  1
 -1.877191466631e-10    9  3  6  2
  8.132014236027e-12    9  3  6  3
  2.655549273872e-02    9  3  6  4
 -8.295590900496e-02    9  3  6  6
 -2.630653074627e-10    9  3  7  1
 -6.425658350888e-02    9  3  7  2
 -1.629460246208e-10    9  3  7  4
 -2.046614764574e-12    9  3  7  5
 -2.104703872330e-10    9  3  7  6
 -1.116753586337e-01    9  3  7  7
  1.200570034827e-01    9  3  8  1
 -6.144970714337e-10    9  3  8  2
 -9.369856064429e-12    9  3  8  3
  8.896775039836e-03    9  3  8  4
  2.355621833548e-02    9  3  8  6
 -1.911966112910e-10    9  3  8  7
 -2.740087787155e-02    9  3  8  8
  7.998103257013e-12    9  3  9  1
  1.261634229767e-01    9  3  9  3
  3.449566865362e-12    9  4  1  1
  2.151924979263e-12    9  4  2  2
  5.153332266980e-04    9  4  3  1
 -8.349061432535e-12    9  4  3  2
  2.422670106481e-12    9  4  3  3
 -6.883342410949e-03    9  4  4  3
  9.852201212432e-12    9  4  4  4
 -1.121506477769e-11    9  4  5  1
 -2.054943255253e-03    9  4  5  2
 -1.114481593970e-11    9  4  5  4
  1.319092687695e-11    9  4  5  5
  1.393033226623e-12    9  4  6  1
  2.391472505904e-03    9  4  6  3
 -2.416357578990e-12    9  4  6  4
 -3.722197209271e-11    9  4  6  5
  5.454930303999e-12    9  4  6  6
  1.667255885496e-12    9  4  7  2
 -9.214329611740e-12    9  4  7  3
 -7.083711739424e-03    9  4  7  5
  8.419891277250e-12    9  4  7  7
 -2.611513953498e-12    9  4  8  1
 -1.580978461058e-03    9  4  8  3
 -2.872524917194e-12    9  4  8  5
 -2.570235888084e-12    9  4  8  6
  5.849953552481e-12    9  4  8  8
 -7.317227602457e-04    9  4  9  1
  9.422166260797e-12    9  4  9  2
 -2.802126401376e-12    9  4  9  3
  1.682933190394e-02    9  4  9  4
  3.928239290349e-12    9  5  1  1
  2.925507594848e-03    9  5  2  1
 -5.446951296073e-11    9  5  2  2
 -2.750023124389e-11    9  5  3  3
  6.913565407994e-12    9  5  4  1
  2.410846974878e-03    9  5  4  2
  1.734158417226e-11    9  5  4  4
 -9.488640013774e-03    9  5  5  3
 -5.559991435955e-12    9  5  5  5
  4.494189753793e-12    9  5  6  1
 -1.830759758129e-03    9  5  6  2
  5.298336969068e-11    9  5  6  4
  2.396861460361e-12    9  5  6  5
 -4.643171096927e-11    9  5  6  6
  2.304267009892e-03    9  5  7  1
 -8.957078679306e-12    9  5  7  2
  1.219026150189e-02    9  5  7  4
 -5.000397915606e-03    9  5  7  6
  3.791202927747e-11    9  5  7  7
 -6.669006795058e-12    9  5  8  1
 -2.571086403715e-04    9  5  8  2
  1.980862684497e-11    9  5  8  4
 -2.635779243755e-11    9  5  8  6
 -4.663632277933e-03    9  5  8  7
 -3.260423231717e-11    9  5  8  8
 -8.475409211026e-12    9  5  9  3
  2.535955987496e-02    9  5  9  5
  1.099500436023e-11    9  6  1  1
  8.121192914562e-12    9  6  2  2
 -3.095664462460e-03    9  6  3  1
 -1.604409097032e-11    9  6  3  2
  1.091517813819e-11    9  6  3  3
  3.364836982801e-12    9  6  4  1
  2.973185706639e-03    9  6  4  3
  1.630393971514e-11    9  6  4  4
 -2.558010272877e-11    9  6  5  1
  2.090593817738e-03    9  6  5  2
 -1.893308872735e-11    9  6  5  4
  1.431585694375e-11    9  6  5  5
  1.717392072985e-12    9  6  6  1
 -5.609332721760e-03    9  6  6  3
 -3.584595426479e-12    9  6  6  4
  8.509749556038e-12    9  6  6  5
  9.935253244349e-12    9  6  6  6
  1.724720660603e-12    9  6  7  2
 -1.445426190061e-11    9  6  7  3
  8.699287797742e-03    9  6  7  5
  1.722663350389e-11    9  6  7  7
 -1.849346646528e-12    9  6  8  1
  1.943973948179e-03    9  6  8  3
 -5.282627459128e-12    9  6  8  4
  5.294687445653e-11    9  6  8  5
 -5.466710462312e-12    9  6  8  6
  1.305051601323e-11    9  6  8  8
  2.768931370636e-03    9  6  9  1
 -5.764433798188e-12    9  6  9  2
 -3.372347539812e-12    9  6  9  3
 -7.472934209705e-03    9  6  9  4
  1.583733915012e-02    9  6  9  6
 -3.239974013666e-11    9  7  3  1
 -7.064552718825e-03    9  7  3  2
 -1.145852197426e-11    9  7  4  3
 -6.625761971227e-03    9  7  5  1
  2.222426076284e-11    9  7  5  2
 -6.096310698470e-03    9  7  5  4
 -1.508530864515e-11    9  7  6  3
 -7.029778902513e-03    9  7  6  5
 -7.359141889494e-03    9  7  7  3
  1.321150409136e-12    9  7  7  4
 -3.143893560792e-12    9  7  7  5
 -1.413217276352e-11    9  7  8  3
  8.676295495253e-03    9  7  8  5
  1.360166974103e-12    9  7  9  1
  3.557568872784e-03    9  7  9  2
  3.688102864647e-11    9  7  9  4
  1.450171936590e-12    9  7  9  5
  6.169432955578e-11    9  7  9  6
  2.435576480359e-02    9  7  9  7
  6.857954465472e-12    9  8  1  1
  2.805966081455e-12    9  8  2  2
  1.211347958006e-02    9  8  3  1
 -5.398304508562e-11    9  8  3  2
  2.040822042364e-12    9  8  3  3
  1.506921555183e-12    9  8  4  1
 -2.420960081958e-03    9  8  4  3
  1.184337926912e-11    9  8  4  4
 -1.503059074776e-11    9  8  5  1
 -1.435690410864e-03    9  8  5  2
 -1.521438869262e-11    9  8  5  4
  1.586960796929e-11    9  8  5  5
  2.458882065499e-12    9  8  6  1
  1.975610825544e-03    9  8  6  3
 -2.943555691254e-12    9  8  6  4
 -4.431430659910e-11    9  8  6  5
  7.652967872972e-12    9  8  6  6
  2.900199263182e-12    9  8  7  2
 -1.489202973904e-11    9  8  7  3
 -7.449344370670e-03    9  8  7  5
  1.357379667596e-11    9  8  7  7
 -4.523042283638e-12    9  8  8  1
  1.256490146145e-03    9  8  8  3
 -2.047653719275e-12    9  8  8  4
 -2.388894895153e-12    9  8  8  5
 -4.031629926773e-12    9  8  8  6
  9.912717714024e-12    9  8  8  8
 -2.345244200965e-03    9  8  9  1
  2.787465999040e-11    9  8  9  2
 -4.065800648100e-12    9  8  9  3
  1.894578617296e-03    9  8  9  4
 -8.297689311317e-03    9  8  9  6
  4.213271164491e-11    9  8  9  7
  1.629883668550e-02    9  8  9  8
  4.811135294475e-01    9  9  1  1
 -3.468250638828e-10    9  9  2  1
  4.164527053953e-01    9  9  2  2
  4.558724440203e-01    9  9  3  3
  5.459052824718e-02    9  9  4  1
 -2.708732129810e-10    9  9  4  2
 -6.615291047781e-12    9  9  4  3
  6.050777492248e-01    9  9  4  4
 -7.341572996051e-12    9  9  5  2
  2.219458021132e-11    9  9  5  3
  6.523465753463e-01    9  9  5  5
  5.465960105266e-02    9  9  6  1
 -5.253756235962e-11    9  9  6  2
 -1.388684567870e-11    9  9  6  3
 -9.493543986853e-02    9  9  6  4
  4.790394993555e-01    9  9  6  6
 -1.447068058067e-11    9  9  7  1
  5.407825145589e-02    9  9  7  2
  6.768946796438e-10    9  9  7  4
 -1.026830337962e-12    9  9  7  5
  1.112675382765e-09    9  9  7  6
  6.436807772043e-01    9  9  7  7
 -5.951392970394e-02    9  9  8  1
  4.728422067274e-10    9  9  8  2
  3.041012804839e-12    9  9  8  3
 -8.668483054004e-02    9  9  8  4
 -1.272571078924e-01    9  9  8  6
  7.130641578590e-10    9  9  8  7
  5.419183030078e-01    9  9  8  8
 -9.400681848525e-12    9  9  9  1
 -7.282799293350e-02    9  9  9  3
  9.817190409886e-12    9  9  9  4
 -1.159525880575e-11    9  9  9  5
  1.856970650571e-11    9  9  9  6
  1.391745439871e-11    9  9  9  8
  6.694037120771e-01    9  9  9  9
 -4.832257582684e+00    1  1  0  0
  8.806021970073e-10    2  1  0  0
 -4.611726120350e+00    2  2  0  0
 -1.104263424011e-11    3  1  0  0
 -4.647356855728e+00    3  3  0  0
 -1.807045140603e-01    4  1  0  0
  1.050497208084e-09    4  2  0  0
  3.467941413012e-11    4  3  0  0
 -4.269888589968e+00    4  4  0  0
  1.043177369215e-11    5  2  0  0
 -5.135060719686e-11    5  3  0  0
 -4.587513843346e+00    5  5  0  0
 -2.906567557348e-01    6  1  0  0
  1.245512930194e-09    6  2  0  0
  6.520296758972e-11    6  3  0  0
  5.476201334166e-01    6  4  0  0
 -3.649057033019e+00    6  6  0  0
  1.350030549583e-09    7  1  0  0
 -8.030223278934e-02    7  2  0  0
 -3.852904605834e-09    7  4  0  0
  2.066578469322e-12    7  5  0  0
 -6.488398393727e-09    7  6  0  0
 -4.601973454091e+00    7  7  0  0
 -2.625677617036e-01    8  1  0  0
  3.274931435152e-10    8  2  0  0
  3.184751712200e-11    8  3  0  0
  4.727904316690e-01    8  4  0  0
  7.564341151966e-01    8  6  0  0
 -4.149430727085e-09    8  7  0  0
 -4.148020880196e+00    8  8  0  0
  2.777637480128e-11    9  1  0  0
 -7.832527240509e-02    9  3  0  0
 -4.850724777169e-11    9  4  0  0
  9.551805939075e-11    9  5  0  0
 -9.896659547294e-11    9  6  0  0
 -6.226903894103e-11    9  8  0  0
 -4.669829718181e+00    9  9  0  0
    -77.025403392827   0  0  0  0
