#INFO: **** input file is /projects/bamu3429/BENCHMARK/fresh_atoms/MRPT/vqz/monoxides/CrO/mrpt.py ****
import json
from pyscf import gto,scf,mcscf, fci, lo, ci, cc
from pyscf.scf import ROHF, UHF,ROKS
import numpy as np
import pandas as pd

# THIS IS WERE IT STARTS ====================================

df=json.load(open("../../../trail.json"))

spins={'ScO':1, 'TiO':2, 'VO':3, 'CrO':4, 'MnO':5, 'FeO':4, 'CuO':1}

nd={'Sc':(1,0), 'Ti':(2,0), 'V':(3,0), 'Cr':(5,0), 'Mn':(5,0), 'Fe':(5,1), 'Cu':(5,4)}

cas={'Sc':3, 'Ti':4, 'V':5, 'Cr':6, 'Mn':7, 'Fe':8, 'Cu':11}

re={'ScO':1.668, 'TiO':1.623, 'VO':1.591, 'CrO':1.621, 'MnO':1.648, 'FeO':1.616, 'CuO':1.725}

datacsv={}
for nm in ['basis','charge','method','molecule','pseudopotential',
           'totalenergy','totalenergy-stocherr','totalenergy-syserr']:
  datacsv[nm]=[]

basis='vqz'
element='Cr'

mol=gto.Mole()
mol.ecp={}
mol.basis={}
for el in [element,'O']:
  mol.ecp[el]=gto.basis.parse_ecp(df[el]['ecp'])
  mol.basis[el]=gto.basis.parse(df[el][basis])
mol.charge=0
mol.spin=spins[element+'O']
mol.build(atom="%s 0. 0. 0.; O 0. 0. %g"%(element,re[element+'O']),verbose=4)

m=ROHF(mol)
m.level_shift=1000.0
dm=m.from_chk("../../../../HF/monoxides/"+element+basis+"0.chk")
hf=m.kernel(dm)
m.analyze()

from pyscf.shciscf import shci
mc = shci.SHCISCF(m, 9, 4+cas[element])
#mc.fcisolver.conv_tol = 1e-14
mc.fcisolver.mpiprefix="srun -n20"
mc.fcisolver.num_thrds=12
mc.verbose = 4
cas=mc.kernel()[0]
 
from pyscf.icmpspt import icmpspt
pt=icmpspt.icmpspt(mc,rdmM=500, PTM=1000,\
                          pttype="MRLCC",\
                          third_order=True,\
                          fully_ic=True,\
                          do_dm4=True)

datacsv['basis'].append(basis)
datacsv['charge'].append(0)
datacsv['method'].append('MRPT')
datacsv['molecule'].append(element)
datacsv['pseudopotential'].append('trail')
datacsv['totalenergy'].append(cas+pt)
datacsv['totalenergy-stocherr'].append(0.0)
datacsv['totalenergy-syserr'].append(0.0)
pd.DataFrame(datacsv).to_csv(element+".csv",index=False)

#INFO: ******************** input file end ********************


System: ('Linux', 'bnode0302.rc.int.colorado.edu', '3.10.0-514.41.1.el7.x86_64', '#1 SMP Wed Jan 17 10:26:16 EST 2018', 'x86_64', 'x86_64')  Threads 28
Python 2.7.11 (default, Mar 22 2016, 01:42:54) 
[GCC Intel(R) C++ gcc 4.8 mode]
numpy 1.11.1  scipy 0.17.1
Date: Thu Apr 19 12:49:30 2018
PySCF version 1.4.6
PySCF path  /projects/bamu3429/softwares/pyscf_uptodate/pyscf
GIT ORIG_HEAD f3591ef22170896a4cdc2aadaa6f5da388ffcadb
GIT HEAD      ref: refs/heads/master
GIT master branch  1847583fb1d2472321833d3c71c8b7008e5fabf5

[INPUT] VERBOSE 4
[INPUT] num atoms = 2
[INPUT] num electrons = 20
[INPUT] charge = 0
[INPUT] spin (= nelec alpha-beta = 2S) = 4
[INPUT] symmetry False subgroup None
[INPUT]  1 Cr     0.000000000000   0.000000000000   0.000000000000 AA    0.000000000000   0.000000000000   0.000000000000 Bohr
[INPUT]  2 O      0.000000000000   0.000000000000   1.621000000000 AA    0.000000000000   0.000000000000   3.063246047920 Bohr
[INPUT] ---------------- BASIS SET ---------------- 
[INPUT] l, kappa, [nprim/nctr], expnt,             c_1 c_2 ...
[INPUT] Cr
[INPUT] 0    0    [12   /1   ]  41.45590127       0.010332
                                22.20089455       -0.091393
                                12.37022616       0.412444
                                7.15443966        -0.722409
                                3.63012556        0.039693
                                1.88942247        0.321055
                                1.04381355        0.652182
                                0.47307333        0.264443
                                0.22628807        -0.008646
                                0.10750747        0.012188
                                0.05101028        -0.00242
                                0.0242372         0.001733
[INPUT] 0    0    [12   /1   ]  41.45590127       -0.001971
                                22.20089455       0.019152
                                12.37022616       -0.094562
                                7.15443966        0.178991
                                3.63012556        -0.015716
                                1.88942247        -0.084882
                                1.04381355        -0.243744
                                0.47307333        -0.214624
                                0.22628807        0.055092
                                0.10750747        0.415903
                                0.05101028        0.543473
                                0.0242372         0.170131
[INPUT] 0    0    [12   /1   ]  41.45590127       -0.006227
                                22.20089455       0.071299
                                12.37022616       -0.410892
                                7.15443966        0.917584
                                3.63012556        -0.221951
                                1.88942247        -1.345636
                                1.04381355        -0.06992
                                0.47307333        0.755692
                                0.22628807        0.739114
                                0.10750747        0.112359
                                0.05101028        -0.547421
                                0.0242372         -0.284669
[INPUT] 0    0    [12   /1   ]  41.45590127       -0.006182
                                22.20089455       0.080693
                                12.37022616       -0.526764
                                7.15443966        1.364382
                                3.63012556        -0.812528
                                1.88942247        -2.239916
                                1.04381355        1.755013
                                0.47307333        1.667635
                                0.22628807        -1.426447
                                0.10750747        -1.028337
                                0.05101028        0.585035
                                0.0242372         0.607504
[INPUT] 0    0    [12   /1   ]  41.45590127       -2.6e-05
                                22.20089455       -0.072001
                                12.37022616       0.777417
                                7.15443966        -2.790553
                                3.63012556        4.512611
                                1.88942247        -0.555137
                                1.04381355        -4.087256
                                0.47307333        3.038568
                                0.22628807        0.867446
                                0.10750747        -2.097137
                                0.05101028        -0.014926
                                0.0242372         0.887447
[INPUT] 0    0    [1    /1   ]  0.0242372            1
[INPUT] 0    0    [1    /1   ]  0.01151614           1
[INPUT] 1    0    [12   /1   ]  28.88080716       -0.002973
                                13.19380569       0.044202
                                7.25722596        -0.232476
                                4.84342676        0.167654
                                2.76949909        0.179744
                                1.50719356        0.46058
                                0.72516508        0.338218
                                0.36385743        0.097984
                                0.16204617        0.012145
                                0.07447705        -0.000948
                                0.03422994        0.000821
                                0.01573221        -0.00022
[INPUT] 1    0    [12   /1   ]  28.88080716       0.000536
                                13.19380569       -0.009363
                                7.25722596        0.054752
                                4.84342676        -0.042977
                                2.76949909        -0.049244
                                1.50719356        -0.128712
                                0.72516508        -0.11682
                                0.36385743        0.044517
                                0.16204617        0.322192
                                0.07447705        0.482878
                                0.03422994        0.275764
                                0.01573221        0.025472
[INPUT] 1    0    [12   /1   ]  28.88080716       -0.000601
                                13.19380569       0.036419
                                7.25722596        -0.319649
                                4.84342676        0.265625
                                2.76949909        0.800568
                                1.50719356        0.1134
                                0.72516508        -0.940194
                                0.36385743        -0.356195
                                0.16204617        0.582848
                                0.07447705        0.421307
                                0.03422994        0.024352
                                0.01573221        0.004528
[INPUT] 1    0    [12   /1   ]  28.88080716       0.001606
                                13.19380569       0.051311
                                7.25722596        -0.743081
                                4.84342676        1.253251
                                2.76949909        1.03744
                                1.50719356        -1.776327
                                0.72516508        -0.552415
                                0.36385743        1.568643
                                0.16204617        -0.082341
                                0.07447705        -0.666944
                                0.03422994        -0.027493
                                0.01573221        -0.01175
[INPUT] 1    0    [12   /1   ]  28.88080716       0.013614
                                13.19380569       -0.041885
                                7.25722596        -1.136499
                                4.84342676        3.740841
                                2.76949909        -2.3618
                                1.50719356        -1.491548
                                0.72516508        2.916436
                                0.36385743        -1.186695
                                0.16204617        -1.003943
                                0.07447705        1.033584
                                0.03422994        -0.005965
                                0.01573221        0.033567
[INPUT] 1    0    [1    /1   ]  0.01573221           1
[INPUT] 1    0    [1    /1   ]  0.00723058           1
[INPUT] 2    0    [10   /1   ]  46.50908408       0.000358
                                21.60133229       -0.010512
                                11.03652449       0.11118
                                4.54288797        0.164184
                                2.18180243        0.267436
                                1.04009058        0.310836
                                0.48262909        0.28353
                                0.21570372        0.173079
                                0.10059873        0.057279
                                0.04653409        0.00937
[INPUT] 2    0    [10   /1   ]  46.50908408       0.000742
                                21.60133229       0.005602
                                11.03652449       -0.103642
                                4.54288797        -0.218406
                                2.18180243        -0.413398
                                1.04009058        -0.079422
                                0.48262909        0.294538
                                0.21570372        0.416612
                                0.10059873        0.235487
                                0.04653409        0.050239
[INPUT] 2    0    [10   /1   ]  46.50908408       -0.00365
                                21.60133229       0.008162
                                11.03652449       0.079193
                                4.54288797        0.433939
                                2.18180243        0.349419
                                1.04009058        -0.696856
                                0.48262909        -0.418157
                                0.21570372        0.309031
                                0.10059873        0.451053
                                0.04653409        0.102595
[INPUT] 2    0    [10   /1   ]  46.50908408       2e-06
                                21.60133229       -0.017312
                                11.03652449       0.289925
                                4.54288797        0.891377
                                2.18180243        -1.014212
                                1.04009058        -0.495442
                                0.48262909        0.952535
                                0.21570372        0.034125
                                0.10059873        -0.457461
                                0.04653409        -0.126771
[INPUT] 2    0    [1    /1   ]  0.04653409           1
[INPUT] 2    0    [1    /1   ]  0.02152533           1
[INPUT] 3    0    [1    /1   ]  3.786904             1
[INPUT] 3    0    [1    /1   ]  1.303251             1
[INPUT] 3    0    [1    /1   ]  0.448509             1
[INPUT] 3    0    [1    /1   ]  0.1543527            1
[INPUT] 4    0    [1    /1   ]  3.665821             1
[INPUT] 4    0    [1    /1   ]  1.288052             1
[INPUT] 4    0    [1    /1   ]  0.45258017           1
[INPUT] 5    0    [1    /1   ]  3.056986             1
[INPUT] 5    0    [1    /1   ]  1.07412687           1
[INPUT] O
[INPUT] 0    0    [10   /1   ]  57.663349         -0.002794
                                35.726816         0.023976
                                22.453757         -0.115974
                                14.732301         0.288033
                                9.739917          -0.274786
                                5.042008          -0.083789
                                2.157818          0.063778
                                1.002916          0.410182
                                0.421839          0.504044
                                0.173041          0.172152
[INPUT] 0    0    [1    /1   ]  1.70747              1
[INPUT] 0    0    [1    /1   ]  0.617491             1
[INPUT] 0    0    [1    /1   ]  0.223309             1
[INPUT] 0    0    [1    /1   ]  0.084592             1
[INPUT] 1    0    [10   /1   ]  52.47406          -0.000522
                                32.138432         0.004857
                                19.458579         -0.027749
                                11.839344         0.074258
                                7.91003           0.014369
                                3.670858          0.153479
                                1.53966           0.283685
                                0.647119          0.358201
                                0.267853          0.29559
                                0.107198          0.104889
[INPUT] 1    0    [1    /1   ]  1.345435             1
[INPUT] 1    0    [1    /1   ]  0.458358             1
[INPUT] 1    0    [1    /1   ]  0.156151             1
[INPUT] 1    0    [1    /1   ]  0.045837             1
[INPUT] 2    0    [1    /1   ]  3.661538             1
[INPUT] 2    0    [1    /1   ]  1.279275             1
[INPUT] 2    0    [1    /1   ]  0.446952             1
[INPUT] 2    0    [1    /1   ]  0.148191             1
[INPUT] 3    0    [1    /1   ]  2.598839             1
[INPUT] 3    0    [1    /1   ]  0.849032             1
[INPUT] 3    0    [1    /1   ]  0.310222             1
[INPUT] 4    0    [1    /1   ]  1.838653             1
[INPUT] 4    0    [1    /1   ]  0.706784             1
nuclear repulsion = 27.4218912506354
number of shells = 48
number of NR pGTOs = 650
number of NR cGTOs = 214
basis = {'Cr': [[0, [41.45590127, 0.010332], [22.20089455, -0.091393], [12.37022616, 0.412444], [7.15443966, -0.722409], [3.63012556, 0.039693], [1.88942247, 0.321055], [1.04381355, 0.652182], [0.47307333, 0.264443], [0.22628807, -0.008646], [0.10750747, 0.012188], [0.05101028, -0.00242], [0.0242372, 0.001733]], [0, [41.45590127, -0.001971], [22.20089455, 0.019152], [12.37022616, -0.094562], [7.15443966, 0.178991], [3.63012556, -0.015716], [1.88942247, -0.084882], [1.04381355, -0.243744], [0.47307333, -0.214624], [0.22628807, 0.055092], [0.10750747, 0.415903], [0.05101028, 0.543473], [0.0242372, 0.170131]], [0, [41.45590127, -0.006227], [22.20089455, 0.071299], [12.37022616, -0.410892], [7.15443966, 0.917584], [3.63012556, -0.221951], [1.88942247, -1.345636], [1.04381355, -0.06992], [0.47307333, 0.755692], [0.22628807, 0.739114], [0.10750747, 0.112359], [0.05101028, -0.547421], [0.0242372, -0.284669]], [0, [41.45590127, -0.006182], [22.20089455, 0.080693], [12.37022616, -0.526764], [7.15443966, 1.364382], [3.63012556, -0.812528], [1.88942247, -2.239916], [1.04381355, 1.755013], [0.47307333, 1.667635], [0.22628807, -1.426447], [0.10750747, -1.028337], [0.05101028, 0.585035], [0.0242372, 0.607504]], [0, [41.45590127, -2.6e-05], [22.20089455, -0.072001], [12.37022616, 0.777417], [7.15443966, -2.790553], [3.63012556, 4.512611], [1.88942247, -0.555137], [1.04381355, -4.087256], [0.47307333, 3.038568], [0.22628807, 0.867446], [0.10750747, -2.097137], [0.05101028, -0.014926], [0.0242372, 0.887447]], [0, [0.0242372, 1.0]], [0, [0.01151614, 1.0]], [1, [28.88080716, -0.002973], [13.19380569, 0.044202], [7.25722596, -0.232476], [4.84342676, 0.167654], [2.76949909, 0.179744], [1.50719356, 0.46058], [0.72516508, 0.338218], [0.36385743, 0.097984], [0.16204617, 0.012145], [0.07447705, -0.000948], [0.03422994, 0.000821], [0.01573221, -0.00022]], [1, [28.88080716, 0.000536], [13.19380569, -0.009363], [7.25722596, 0.054752], [4.84342676, -0.042977], [2.76949909, -0.049244], [1.50719356, -0.128712], [0.72516508, -0.11682], [0.36385743, 0.044517], [0.16204617, 0.322192], [0.07447705, 0.482878], [0.03422994, 0.275764], [0.01573221, 0.025472]], [1, [28.88080716, -0.000601], [13.19380569, 0.036419], [7.25722596, -0.319649], [4.84342676, 0.265625], [2.76949909, 0.800568], [1.50719356, 0.1134], [0.72516508, -0.940194], [0.36385743, -0.356195], [0.16204617, 0.582848], [0.07447705, 0.421307], [0.03422994, 0.024352], [0.01573221, 0.004528]], [1, [28.88080716, 0.001606], [13.19380569, 0.051311], [7.25722596, -0.743081], [4.84342676, 1.253251], [2.76949909, 1.03744], [1.50719356, -1.776327], [0.72516508, -0.552415], [0.36385743, 1.568643], [0.16204617, -0.082341], [0.07447705, -0.666944], [0.03422994, -0.027493], [0.01573221, -0.01175]], [1, [28.88080716, 0.013614], [13.19380569, -0.041885], [7.25722596, -1.136499], [4.84342676, 3.740841], [2.76949909, -2.3618], [1.50719356, -1.491548], [0.72516508, 2.916436], [0.36385743, -1.186695], [0.16204617, -1.003943], [0.07447705, 1.033584], [0.03422994, -0.005965], [0.01573221, 0.033567]], [1, [0.01573221, 1.0]], [1, [0.00723058, 1.0]], [2, [46.50908408, 0.000358], [21.60133229, -0.010512], [11.03652449, 0.11118], [4.54288797, 0.164184], [2.18180243, 0.267436], [1.04009058, 0.310836], [0.48262909, 0.28353], [0.21570372, 0.173079], [0.10059873, 0.057279], [0.04653409, 0.00937]], [2, [46.50908408, 0.000742], [21.60133229, 0.005602], [11.03652449, -0.103642], [4.54288797, -0.218406], [2.18180243, -0.413398], [1.04009058, -0.079422], [0.48262909, 0.294538], [0.21570372, 0.416612], [0.10059873, 0.235487], [0.04653409, 0.050239]], [2, [46.50908408, -0.00365], [21.60133229, 0.008162], [11.03652449, 0.079193], [4.54288797, 0.433939], [2.18180243, 0.349419], [1.04009058, -0.696856], [0.48262909, -0.418157], [0.21570372, 0.309031], [0.10059873, 0.451053], [0.04653409, 0.102595]], [2, [46.50908408, 2e-06], [21.60133229, -0.017312], [11.03652449, 0.289925], [4.54288797, 0.891377], [2.18180243, -1.014212], [1.04009058, -0.495442], [0.48262909, 0.952535], [0.21570372, 0.034125], [0.10059873, -0.457461], [0.04653409, -0.126771]], [2, [0.04653409, 1.0]], [2, [0.02152533, 1.0]], [3, [3.786904, 1.0]], [3, [1.303251, 1.0]], [3, [0.448509, 1.0]], [3, [0.1543527, 1.0]], [4, [3.665821, 1.0]], [4, [1.288052, 1.0]], [4, [0.45258017, 1.0]], [5, [3.056986, 1.0]], [5, [1.07412687, 1.0]]], 'O': [[0, [57.663349, -0.002794], [35.726816, 0.023976], [22.453757, -0.115974], [14.732301, 0.288033], [9.739917, -0.274786], [5.042008, -0.083789], [2.157818, 0.063778], [1.002916, 0.410182], [0.421839, 0.504044], [0.173041, 0.172152]], [0, [1.70747, 1.0]], [0, [0.617491, 1.0]], [0, [0.223309, 1.0]], [0, [0.084592, 1.0]], [1, [52.47406, -0.000522], [32.138432, 0.004857], [19.458579, -0.027749], [11.839344, 0.074258], [7.91003, 0.014369], [3.670858, 0.153479], [1.53966, 0.283685], [0.647119, 0.358201], [0.267853, 0.29559], [0.107198, 0.104889]], [1, [1.345435, 1.0]], [1, [0.458358, 1.0]], [1, [0.156151, 1.0]], [1, [0.045837, 1.0]], [2, [3.661538, 1.0]], [2, [1.279275, 1.0]], [2, [0.446952, 1.0]], [2, [0.148191, 1.0]], [3, [2.598839, 1.0]], [3, [0.849032, 1.0]], [3, [0.310222, 1.0]], [4, [1.838653, 1.0]], [4, [0.706784, 1.0]]]}
ecp = {'Cr': [10, [[-1, [[], [[13.07675203, 14.0]], [[15.15807582, 1258.1555038], [4.62785686, -98.60998187], [15.41136599, -6552.46055066], [15.38690637, 5353.09061557]], [[5.24897308, 183.07452839]]]], [0, [[], [], [[9.77680844, -91901.2080948], [9.95980111, 96320.14803227], [8.62275214, 3928.3135917], [12.29288144, -10977.62459544], [18.41316592, -1741.60409682], [16.38541961, 4413.26493033]], []]], [1, [[], [], [[12.00099996, -22156.17142851], [11.46524435, 21551.07876111], [16.23852226, 3703.78784703], [18.43861108, -1424.18632323], [8.88877941, -1964.93568469], [7.52644784, 317.50498882]], []]], [2, [[], [], [[11.1066837, -5435.29666496], [8.49801115, 7350.69608766], [12.28065533, 2443.80334995], [8.1885354, -5401.76770998], [14.34306836, 3881.23075486], [15.24784181, -2855.87137953]], []]]]], 'O': [2, [[-1, [[], [[10.27717748, 6.0]], [[15.99566749, 1232.50197768], [10.46901775, -696.47008301], [14.6384801, -2654.22657081], [12.57591181, 2101.67732548]], [[7.77739102, 61.66306486]]]], [0, [[], [], [[12.39426073, -656683.37638839], [12.38126171, 657858.57667068], [8.57671033, 511.50098405], [9.89256508, -2579.54665641], [28.05641604, -57.68129584], [17.24753607, 970.30940152]], []]], [1, [[], [], [[14.78918914, -363027.24258186], [14.82014018, 361852.52314043], [22.89622221, -1300.20069256], [8.51331893, -181.96869573], [11.48609758, 2194.87589959], [27.22017524, 451.19906206]], []]]]]}
CPU time:         3.65


******** <class 'pyscf.scf.rohf.ROHF'> flags ********
method = ROHF
initial guess = minao
damping factor = 0
level shift factor = 1000.0
DIIS = <class 'pyscf.scf.diis.CDIIS'>
DIIS start cycle = 1
DIIS space = 8
SCF tol = 1e-09
SCF gradient tol = None
max. SCF cycles = 50
direct_scf = True
direct_scf_tol = 1e-13
chkfile to save SCF result = /rc_scratch/bamu3429/tmpBfUV3P
max_memory 4000 MB (current use 101 MB)
num. doubly occ = 8  num. singly occ = 4
Set gradient conv threshold to 3.16228e-05
init E= -101.846271633318
  HOMO = 499.886578814441  LUMO = 1000.00310022908
cycle= 1 E= -101.846271633318  delta_E= -5.68e-13  |g|= 1.57e-05  |ddm|= 6.36e-08
  HOMO = -0.113421197822075  LUMO = 0.00310022842567058
Extra cycle  E= -101.846271633414  delta_E= -9.6e-11  |g|= 1.54e-05  |ddm|= 8.1e-05
converged SCF energy = -101.846271633414
**** MO energy ****
                Roothaan           | alpha              | beta
MO #1   energy= -3.65319703503233  | -3.78741340824486  | -3.51898066621003  occ= 2
MO #2   energy= -2.34349430893262  | -2.45981837105037  | -2.2271702370654   occ= 2
MO #3   energy= -2.3294530681539   | -2.48948519470857  | -2.16942094159923  occ= 2
MO #4   energy= -2.32316955736698  | -2.52960428351803  | -2.11673483729076  occ= 2
MO #5   energy= -1.14810162196995  | -1.15679968726779  | -1.13940353423867  occ= 2
MO #6   energy= -0.445378107990944 | -0.466476595742889 | -0.424278444759087 occ= 2
MO #7   energy= -0.431777300979379 | -0.455931050319951 | -0.407623559250809 occ= 2
MO #8   energy= -0.4093887757803   | -0.417582917886682 | -0.401194633673922 occ= 2
MO #9   energy= -0.14171883448475  | -0.517500967037534 | 0.234062082127006  occ= 1
MO #10  energy= -0.13376390555255  | -0.566028067345821 | 0.298499367328064  occ= 1
MO #11  energy= -0.120546419804281 | -0.393277123318268 | 0.152185600605511  occ= 1
MO #12  energy= -0.113421197822075 | -0.529145929755943 | 0.302303214376563  occ= 1
MO #13  energy= 0.00310022842567058 | -0.00256003579833407 | 0.00875994533497155 occ= 0
MO #14  energy= 0.0102666577593625 | 0.0077532224197913 | 0.0127800930989358 occ= 0
MO #15  energy= 0.0125517110800725 | 0.0115866491653367 | 0.0135162440331041 occ= 0
MO #16  energy= 0.0244035176519129 | 0.0204289281923458 | 0.0283777898719787 occ= 0
MO #17  energy= 0.0322804551229808 | 0.024012241155776  | 0.0405486690901846 occ= 0
MO #18  energy= 0.0326879319690334 | 0.0254166711910135 | 0.0399587503942572 occ= 0
MO #19  energy= 0.0416398925587916 | 0.0355520401409717 | 0.0477281606636944 occ= 0
MO #20  energy= 0.06305016235132   | 0.0625482643028748 | 0.0635520964284227 occ= 0
MO #21  energy= 0.0631526611680886 | 0.0627129232949263 | 0.0635923432389906 occ= 0
MO #22  energy= 0.0698879920718697 | 0.0691454484918683 | 0.0706305356518689 occ= 0
MO #23  energy= 0.0708779511007431 | 0.0642773090652583 | 0.0774781299260894 occ= 0
MO #24  energy= 0.0709851839999111 | 0.0705175545867694 | 0.0714527872478312 occ= 0
MO #25  energy= 0.0861692314948819 | 0.0764176336571113 | 0.0959203053553818 occ= 0
MO #26  energy= 0.0983654371442233 | 0.080923972709674  | 0.115806901578771  occ= 0
MO #27  energy= 0.126282370830992  | 0.121183914498491  | 0.131381005513932  occ= 0
MO #28  energy= 0.132083385132977  | 0.11118596019905   | 0.152980713032854  occ= 0
MO #29  energy= 0.19159457861197   | 0.183998242919432  | 0.199191037205882  occ= 0
MO #30  energy= 0.194003774155501  | 0.186926913449902  | 0.201081137787126  occ= 0
MO #31  energy= 0.198213677371245  | 0.188941977654958  | 0.207485302523666  occ= 0
MO #32  energy= 0.203328910471089  | 0.175980450184744  | 0.230677370757432  occ= 0
MO #33  energy= 0.222747429113789  | 0.214355207411469  | 0.231139650816106  occ= 0
MO #34  energy= 0.223146278252269  | 0.214955288869792  | 0.231337267262475  occ= 0
MO #35  energy= 0.23628785937839   | 0.22867196750331   | 0.24390375125347   occ= 0
MO #36  energy= 0.236943255038521  | 0.229196199847312  | 0.244690301966964  occ= 0
MO #37  energy= 0.242660443979202  | 0.233979479040953  | 0.251341212931539  occ= 0
MO #38  energy= 0.320298247890491  | 0.309928661185784  | 0.33066779002894   occ= 0
MO #39  energy= 0.531001868766314  | 0.511942370981274  | 0.55006161232189   occ= 0
MO #40  energy= 0.540142770191912  | 0.535105450770559  | 0.545180064049324  occ= 0
MO #41  energy= 0.540185015976199  | 0.535147949568905  | 0.545222080946053  occ= 0
MO #42  energy= 0.567184290250383  | 0.548396036859975  | 0.585972505829378  occ= 0
MO #43  energy= 0.574210520923547  | 0.56225297527525   | 0.586168066571843  occ= 0
MO #44  energy= 0.574394698090441  | 0.562420328653279  | 0.586369064594139  occ= 0
MO #45  energy= 0.579986059110371  | 0.566118205664368  | 0.593853912556371  occ= 0
MO #46  energy= 0.586756600859468  | 0.574214241954701  | 0.599298990652183  occ= 0
MO #47  energy= 0.625549447853884  | 0.613618251777995  | 0.637480643929758  occ= 0
MO #48  energy= 0.626679465845105  | 0.606916200676263  | 0.646442815088331  occ= 0
MO #49  energy= 0.631135360340074  | 0.606151667748864  | 0.656119415857299  occ= 0
MO #50  energy= 0.631831916912961  | 0.607359832814022  | 0.656304190821985  occ= 0
MO #51  energy= 0.647008735604673  | 0.625550719015987  | 0.668466748083737  occ= 0
MO #52  energy= 0.704693104167869  | 0.698960646101544  | 0.710425561265614  occ= 0
MO #53  energy= 0.72798436834651   | 0.719916949287972  | 0.736051847352214  occ= 0
MO #54  energy= 0.729564973496666  | 0.723938548638682  | 0.735191398354647  occ= 0
MO #55  energy= 0.807489707589219  | 0.779550152006141  | 0.835429458884906  occ= 0
MO #56  energy= 0.808455637390946  | 0.780519119543622  | 0.836392376467197  occ= 0
MO #57  energy= 0.837617790216345  | 0.819129556057303  | 0.856106187014182  occ= 0
MO #58  energy= 0.842615486183739  | 0.831592910633195  | 0.85363806173428   occ= 0
MO #59  energy= 0.92745824064607   | 0.922764380683833  | 0.932152100260534  occ= 0
MO #60  energy= 1.29909113034545   | 1.28706252748871   | 1.31111973337824   occ= 0
MO #61  energy= 1.32991281421157   | 1.29617530368892   | 1.36365044148972   occ= 0
MO #62  energy= 1.33935642817281   | 1.31982596486665   | 1.35888689147897   occ= 0
MO #63  energy= 1.40254393257243   | 1.40066057548344   | 1.40442728965203   occ= 0
MO #64  energy= 1.40254446854118   | 1.40066246627039   | 1.40442647081196   occ= 0
MO #65  energy= 1.50875689699076   | 1.49712692290665   | 1.52038687416435   occ= 0
MO #66  energy= 1.50885931939223   | 1.4972617931318    | 1.52045684451178   occ= 0
MO #67  energy= 1.57484587200018   | 1.56592544405818   | 1.58376629901847   occ= 0
MO #68  energy= 1.60234139468071   | 1.59544336522654   | 1.60923942413489   occ= 0
MO #69  energy= 1.60572009909926   | 1.59093534278035   | 1.62050485334683   occ= 0
MO #70  energy= 1.67635555183764   | 1.6746522584235    | 1.6780588454499    occ= 0
MO #71  energy= 1.67636138844444   | 1.67470085524896   | 1.67802192189287   occ= 0
MO #72  energy= 1.72197575789814   | 1.70639486378372   | 1.73755665476363   occ= 0
MO #73  energy= 1.72990291183071   | 1.68011641738594   | 1.7796894062755    occ= 0
MO #74  energy= 1.729946146424     | 1.68001598590951   | 1.77987630755648   occ= 0
MO #75  energy= 1.77278754752822   | 1.7508759825083    | 1.79469911254815   occ= 0
MO #76  energy= 1.78070187858606   | 1.75181659403508   | 1.80958717592739   occ= 0
MO #77  energy= 1.84476889194966   | 1.82443749623804   | 1.86510032314227   occ= 0
MO #78  energy= 1.88317769956915   | 1.8569499389355    | 1.90940545401272   occ= 0
MO #79  energy= 1.88321856215044   | 1.85713670794895   | 1.90930040849097   occ= 0
MO #80  energy= 1.98960188150649   | 1.97328059144359   | 2.00592318097015   occ= 0
MO #81  energy= 2.00738975484108   | 1.99617270985532   | 2.01860679982683   occ= 0
MO #82  energy= 2.00941217720254   | 1.98335755196941   | 2.03546684022413   occ= 0
MO #83  energy= 2.10106167833404   | 2.08029420236093   | 2.12182915456241   occ= 0
MO #84  energy= 2.10106169435428   | 2.08029424558426   | 2.1218291434494    occ= 0
MO #85  energy= 2.21829869158283   | 2.20348112783901   | 2.23311625534847   occ= 0
MO #86  energy= 2.21830124652141   | 2.20347915849018   | 2.23312333455263   occ= 0
MO #87  energy= 2.2946965541805    | 2.28372374448969   | 2.30566937098616   occ= 0
MO #88  energy= 2.37942635669808   | 2.3727733035474    | 2.38607940984874   occ= 0
MO #89  energy= 2.38593803910131   | 2.37495327511065   | 2.3969228074918    occ= 0
MO #90  energy= 2.58325840749632   | 2.56986018785147   | 2.59665662903884   occ= 0
MO #91  energy= 2.58346479378483   | 2.57004811992319   | 2.59688147096531   occ= 0
MO #92  energy= 2.66166909032672   | 2.65559126178269   | 2.66774691887074   occ= 0
MO #93  energy= 2.66347654563283   | 2.6491657827948    | 2.67778733573144   occ= 0
MO #94  energy= 2.68366235923202   | 2.65534647825463   | 2.71197825099107   occ= 0
MO #95  energy= 2.93633709534797   | 2.86413043434112   | 3.0085438334858    occ= 0
MO #96  energy= 2.93659274640297   | 2.86517594178667   | 3.0080096041067    occ= 0
MO #97  energy= 3.03074689765839   | 3.01051544110121   | 3.05097835448633   occ= 0
MO #98  energy= 3.36982867175335   | 3.32954774394076   | 3.41010970124522   occ= 0
MO #99  energy= 3.37315353832197   | 3.35816275481012   | 3.38814432183381   occ= 0
MO #100 energy= 3.73045951459032   | 3.72955068105392   | 3.73136834812734   occ= 0
MO #101 energy= 3.73045951503069   | 3.72955068204034   | 3.73136834802185   occ= 0
MO #102 energy= 3.87643046427008   | 3.87262817831178   | 3.88023275023063   occ= 0
MO #103 energy= 3.87643062428718   | 3.87262846467287   | 3.88023278390151   occ= 0
MO #104 energy= 3.93782179969181   | 3.92881560380471   | 3.94682799721341   occ= 0
MO #105 energy= 4.13292331551193   | 4.13175052495178   | 4.13409610607211   occ= 0
MO #106 energy= 4.13292396887105   | 4.13174983289691   | 4.13409810484533   occ= 0
MO #107 energy= 4.16630165222181   | 4.16202118877277   | 4.17058211601705   occ= 0
MO #108 energy= 4.16633685616057   | 4.16207225184151   | 4.17060146089047   occ= 0
MO #109 energy= 4.22086632076077   | 4.21390135771796   | 4.22783128380358   occ= 0
MO #110 energy= 4.22550601764303   | 4.20981977787443   | 4.24119226222792   occ= 0
MO #111 energy= 4.24345024619379   | 4.23274471639455   | 4.25415577614946   occ= 0
MO #112 energy= 4.29969927989587   | 4.29788605808351   | 4.30151250197146   occ= 0
MO #113 energy= 4.29979877866454   | 4.29791986414488   | 4.30167769312186   occ= 0
MO #114 energy= 4.39500370756547   | 4.38137936603848   | 4.40862804909247   occ= 0
MO #115 energy= 4.40145389363828   | 4.3791361091495    | 4.4237716750207    occ= 0
MO #116 energy= 4.44123099616199   | 4.42442336221093   | 4.45803863075683   occ= 0
MO #117 energy= 4.55403592968803   | 4.51821585467835   | 4.58985600615853   occ= 0
MO #118 energy= 4.55416870161609   | 4.51841394133178   | 4.58992346299977   occ= 0
MO #119 energy= 4.59182938236949   | 4.50202885185023   | 4.68162991288874   occ= 0
MO #120 energy= 4.59185264512893   | 4.50199326741579   | 4.68171202255713   occ= 0
MO #121 energy= 4.66531709171227   | 4.64409648111646   | 4.68653770230808   occ= 0
MO #122 energy= 4.67115780033081   | 4.63220854375227   | 4.71010705659802   occ= 0
MO #123 energy= 4.67327897624068   | 4.64437230474429   | 4.70218564811234   occ= 0
MO #124 energy= 4.76636786724275   | 4.73078623450603   | 4.80194949823229   occ= 0
MO #125 energy= 4.76647837239143   | 4.73070735253486   | 4.80224938817197   occ= 0
MO #126 energy= 5.19778057240537   | 5.18653301190655   | 5.20902813319644   occ= 0
MO #127 energy= 5.22671520245531   | 5.20166537662231   | 5.25176502828831   occ= 0
MO #128 energy= 5.23994357463735   | 5.19791608350088   | 5.28197106978732   occ= 0
MO #129 energy= 5.42421611651504   | 5.39929023091687   | 5.44914200211324   occ= 0
MO #130 energy= 5.44059306017832   | 5.40659547902479   | 5.47459064247113   occ= 0
MO #131 energy= 5.7490269657023    | 5.7228811703945    | 5.77517276093712   occ= 0
MO #132 energy= 6.04976247323663   | 6.02347888554052   | 6.07604606093273   occ= 0
MO #133 energy= 6.04976247330626   | 6.0234788853461    | 6.07604606126643   occ= 0
MO #134 energy= 6.06242500396373   | 6.04094496765491   | 6.08390504030331   occ= 0
MO #135 energy= 6.06242501076368   | 6.04094495694754   | 6.0839050646114    occ= 0
MO #136 energy= 6.2333706796525    | 6.21010989449866   | 6.25663146486676   occ= 0
MO #137 energy= 6.233374054108     | 6.210108930048     | 6.25663917816797   occ= 0
MO #138 energy= 6.26665406027773   | 6.21859594908075   | 6.31471217185493   occ= 0
MO #139 energy= 6.26665411296259   | 6.2185959940893    | 6.31471223219421   occ= 0
MO #140 energy= 6.29343360309689   | 6.27302691624907   | 6.31384029112777   occ= 0
MO #141 energy= 6.34128181462569   | 6.30885492117736   | 6.37370870924616   occ= 0
MO #142 energy= 6.3412902346594    | 6.30884299944492   | 6.37373746987386   occ= 0
MO #143 energy= 6.43960982054166   | 6.4081527593427    | 6.47106688233154   occ= 0
MO #144 energy= 6.43978500324314   | 6.40810945971426   | 6.47146054717228   occ= 0
MO #145 energy= 6.67374908940156   | 6.65856931968318   | 6.68892885909545   occ= 0
MO #146 energy= 6.7286758073358    | 6.71189144598587   | 6.74546016868574   occ= 0
MO #147 energy= 6.74638745615017   | 6.71765992553094   | 6.7751149888828    occ= 0
MO #148 energy= 6.84502842648109   | 6.82883807428765   | 6.86121877889891   occ= 0
MO #149 energy= 6.84547626811225   | 6.82893984570284   | 6.86201269053393   occ= 0
MO #150 energy= 6.87848051605956   | 6.86568043623646   | 6.89128059588267   occ= 0
MO #151 energy= 6.89264745238905   | 6.86701302661528   | 6.91828188083052   occ= 0
MO #152 energy= 7.07979677778418   | 7.0600127693127    | 7.09958078618421   occ= 0
MO #153 energy= 8.55065784896315   | 8.49629479146456   | 8.60502090663646   occ= 0
MO #154 energy= 8.55103444971253   | 8.49591852261419   | 8.60615037963014   occ= 0
MO #155 energy= 9.15079560918835   | 9.14554475527843   | 9.15604646309825   occ= 0
MO #156 energy= 9.1539731603406    | 9.11131327387635   | 9.19663304699104   occ= 0
MO #157 energy= 9.15779824590734   | 9.14401309169254   | 9.17158340037061   occ= 0
MO #158 energy= 10.3656080351243   | 10.3590463320227   | 10.3721697382107   occ= 0
MO #159 energy= 10.4227401582041   | 10.4088009784529   | 10.4366793379552   occ= 0
MO #160 energy= 10.4355568528548   | 10.4032976352006   | 10.4678160708416   occ= 0
MO #161 energy= 10.6897728264842   | 10.6888550452279   | 10.6906906077406   occ= 0
MO #162 energy= 10.6897728345142   | 10.6888550509594   | 10.6906906180691   occ= 0
MO #163 energy= 10.7745477201147   | 10.7737062216631   | 10.7753892185663   occ= 0
MO #164 energy= 10.7745487520644   | 10.7737070707863   | 10.7753904333434   occ= 0
MO #165 energy= 10.9015529062573   | 10.8979434373183   | 10.9051623751889   occ= 0
MO #166 energy= 10.9804251814049   | 10.9793893951807   | 10.9814609676308   occ= 0
MO #167 energy= 10.9808177275253   | 10.9797165076357   | 10.981918947415    occ= 0
MO #168 energy= 11.0707344474571   | 11.069799416707    | 11.0716694782073   occ= 0
MO #169 energy= 11.079961132706    | 11.0782289351137   | 11.0816933302957   occ= 0
MO #170 energy= 11.6518219303541   | 11.6503566429388   | 11.6532872177694   occ= 0
MO #171 energy= 11.6518220679247   | 11.6503566159199   | 11.6532875199288   occ= 0
MO #172 energy= 11.7477042469696   | 11.7278867157332   | 11.7675217782477   occ= 0
MO #173 energy= 11.808763463917    | 11.8073260827286   | 11.8102008451029   occ= 0
MO #174 energy= 11.808851909204    | 11.8073379616278   | 11.8103658567743   occ= 0
MO #175 energy= 12.0297339973943   | 12.001992023489    | 12.0574759712794   occ= 0
MO #176 energy= 12.2810361355878   | 12.2570923838324   | 12.3049798873431   occ= 0
MO #177 energy= 12.2924457555243   | 12.2442430579348   | 12.3406484528758   occ= 0
MO #178 energy= 12.3029767545122   | 12.2267621182997   | 12.3791913907248   occ= 0
MO #179 energy= 12.3034793809919   | 12.2304019392371   | 12.3765568227504   occ= 0
MO #180 energy= 12.3475412363358   | 12.2876819287268   | 12.4074005436708   occ= 0
MO #181 energy= 12.3476858642332   | 12.287835310491    | 12.4075364172255   occ= 0
MO #182 energy= 12.6596469540995   | 12.6445909758793   | 12.6747029323196   occ= 0
MO #183 energy= 12.6705762769774   | 12.6664273549318   | 12.6747251989962   occ= 0
MO #184 energy= 12.6706158075755   | 12.6664453144076   | 12.6747863007252   occ= 0
MO #185 energy= 12.6710144375332   | 12.6431106724306   | 12.6989182023616   occ= 0
MO #186 energy= 12.8095602328886   | 12.803305290625    | 12.8158151751544   occ= 0
MO #187 energy= 12.9023134642749   | 12.8962806660054   | 12.9083462625444   occ= 0
MO #188 energy= 12.912615246056    | 12.9032116598137   | 12.9220188322984   occ= 0
MO #189 energy= 14.0132195730214   | 13.9936769599005   | 14.0327621862825   occ= 0
MO #190 energy= 14.2041416191292   | 14.1691384718669   | 14.2391447663915   occ= 0
MO #191 energy= 14.2295100386295   | 14.1874844380752   | 14.2715356392544   occ= 0
MO #192 energy= 15.0797403091074   | 15.0508915859999   | 15.1085890321934   occ= 0
MO #193 energy= 16.9754778577177   | 16.9169538588961   | 17.0340018566722   occ= 0
MO #194 energy= 16.9754781025344   | 16.9169549551133   | 17.0340012500787   occ= 0
MO #195 energy= 16.9841945025169   | 16.9342703777449   | 17.0341186272891   occ= 0
MO #196 energy= 16.9842047762148   | 16.9342693702753   | 17.0341401831747   occ= 0
MO #197 energy= 17.0432587763875   | 17.0006790382961   | 17.0858385147274   occ= 0
MO #198 energy= 17.0440234476087   | 17.0004186350337   | 17.0876282600045   occ= 0
MO #199 energy= 17.2219363133091   | 17.1923257663444   | 17.2515468602738   occ= 0
MO #200 energy= 17.2474075504526   | 17.1997364029205   | 17.295078698026    occ= 0
MO #201 energy= 17.3290989663016   | 17.2935163776537   | 17.364681554892    occ= 0
MO #202 energy= 17.9062130481993   | 17.8693367438931   | 17.9430893524863   occ= 0
MO #203 energy= 17.9062136227603   | 17.8693368173779   | 17.9430904281234   occ= 0
MO #204 energy= 17.9162649423698   | 17.8744615087401   | 17.9580683759996   occ= 0
MO #205 energy= 17.9162649487887   | 17.8744614607217   | 17.9580684368558   occ= 0
MO #206 energy= 17.9568228355525   | 17.9240363944543   | 17.9896092766507   occ= 0
MO #207 energy= 17.9568466431237   | 17.9240369861982   | 17.9896563000194   occ= 0
MO #208 energy= 18.1208062843566   | 18.0996415812663   | 18.1419709874112   occ= 0
MO #209 energy= 18.1585976244938   | 18.1289224891574   | 18.188272759823    occ= 0
MO #210 energy= 18.1655282583621   | 18.132391301438    | 18.1986652152628   occ= 0
MO #211 energy= 18.3379386450789   | 18.3159315495527   | 18.359945740605    occ= 0
MO #212 energy= 18.3680562907311   | 18.3344125610893   | 18.4017000203      occ= 0
MO #213 energy= 18.8365960259258   | 18.8192191809814   | 18.8539728708181   occ= 0
MO #214 energy= 20.454046316368    | 20.4523439233887   | 20.4557487093366   occ= 0
 ** Mulliken pop on meta-lowdin orthogonal AOs  **
 ** Mulliken pop  **
pop of  0Cr 3s        1.99965
pop of  0Cr 4s        0.73177
pop of  0Cr 5s        0.01098
pop of  0Cr 6s        0.00461
pop of  0Cr 7s        0.00048
pop of  0Cr 8s        0.00291
pop of  0Cr 9s        0.00210
pop of  0Cr 3px       1.99940
pop of  0Cr 3py       1.99952
pop of  0Cr 3pz       1.99783
pop of  0Cr 4px       0.01150
pop of  0Cr 4py       0.02710
pop of  0Cr 4pz       0.01751
pop of  0Cr 5px       0.00060
pop of  0Cr 5py       0.00122
pop of  0Cr 5pz       0.00249
pop of  0Cr 6px       0.00001
pop of  0Cr 6py       0.00003
pop of  0Cr 6pz       0.00047
pop of  0Cr 7px       0.00000
pop of  0Cr 7py       0.00000
pop of  0Cr 7pz       0.00023
pop of  0Cr 8px       0.00028
pop of  0Cr 8py       0.00062
pop of  0Cr 8pz       0.00165
pop of  0Cr 9px       0.00005
pop of  0Cr 9py       0.00013
pop of  0Cr 9pz       0.00018
pop of  0Cr 3dxy      0.99671
pop of  0Cr 3dyz      1.06335
pop of  0Cr 3dz^2     0.78259
pop of  0Cr 3dxz      0.30941
pop of  0Cr 3dx2-y2    0.98209
pop of  0Cr 4dxy      0.00202
pop of  0Cr 4dyz      0.00194
pop of  0Cr 4dz^2     0.00046
pop of  0Cr 4dxz      0.00271
pop of  0Cr 4dx2-y2    0.00216
pop of  0Cr 5dxy      0.00013
pop of  0Cr 5dyz      0.00006
pop of  0Cr 5dz^2     0.00114
pop of  0Cr 5dxz      0.00003
pop of  0Cr 5dx2-y2    0.00014
pop of  0Cr 6dxy      0.00001
pop of  0Cr 6dyz      0.00005
pop of  0Cr 6dz^2     0.00010
pop of  0Cr 6dxz      0.00000
pop of  0Cr 6dx2-y2    0.00001
pop of  0Cr 7dxy      0.00038
pop of  0Cr 7dyz      0.00070
pop of  0Cr 7dz^2     0.00048
pop of  0Cr 7dxz      0.00040
pop of  0Cr 7dx2-y2    0.00039
pop of  0Cr 8dxy      0.00003
pop of  0Cr 8dyz      0.00006
pop of  0Cr 8dz^2     0.00011
pop of  0Cr 8dxz      0.00003
pop of  0Cr 8dx2-y2    0.00003
pop of  0Cr 4fy^3     0.00001
pop of  0Cr 4fxyz     0.00000
pop of  0Cr 4fyz^2    0.00003
pop of  0Cr 4fz^3     0.00004
pop of  0Cr 4fxz^2    0.00002
pop of  0Cr 4fzx^2    0.00001
pop of  0Cr 4fx^3     0.00000
pop of  0Cr 5fy^3     0.00001
pop of  0Cr 5fxyz     0.00003
pop of  0Cr 5fyz^2    0.00027
pop of  0Cr 5fz^3     0.00042
pop of  0Cr 5fxz^2    0.00027
pop of  0Cr 5fzx^2    0.00005
pop of  0Cr 5fx^3     0.00001
pop of  0Cr 6fy^3     0.00000
pop of  0Cr 6fxyz     0.00012
pop of  0Cr 6fyz^2    0.00042
pop of  0Cr 6fz^3     0.00129
pop of  0Cr 6fxz^2    0.00049
pop of  0Cr 6fzx^2    0.00016
pop of  0Cr 6fx^3     0.00000
pop of  0Cr 7fy^3     0.00000
pop of  0Cr 7fxyz     0.00005
pop of  0Cr 7fyz^2    0.00018
pop of  0Cr 7fz^3     0.00168
pop of  0Cr 7fxz^2    0.00010
pop of  0Cr 7fzx^2    0.00008
pop of  0Cr 7fx^3     0.00000
pop of  0Cr 5g-4      0.00000
pop of  0Cr 5g-3      0.00000
pop of  0Cr 5g-2      0.00000
pop of  0Cr 5g-1      0.00000
pop of  0Cr 5g 0      0.00001
pop of  0Cr 5g 1      0.00000
pop of  0Cr 5g 2      0.00000
pop of  0Cr 5g 3      0.00000
pop of  0Cr 5g 4      0.00000
pop of  0Cr 6g-4      0.00000
pop of  0Cr 6g-3      0.00000
pop of  0Cr 6g-2      0.00000
pop of  0Cr 6g-1      0.00004
pop of  0Cr 6g 0      0.00005
pop of  0Cr 6g 1      0.00004
pop of  0Cr 6g 2      0.00000
pop of  0Cr 6g 3      0.00000
pop of  0Cr 6g 4      0.00000
pop of  0Cr 7g-4      0.00000
pop of  0Cr 7g-3      0.00000
pop of  0Cr 7g-2      0.00000
pop of  0Cr 7g-1      0.00023
pop of  0Cr 7g 0      0.00033
pop of  0Cr 7g 1      0.00000
pop of  0Cr 7g 2      0.00001
pop of  0Cr 7g 3      0.00000
pop of  0Cr 7g 4      0.00000
pop of  0Cr 6h-5      0.00000
pop of  0Cr 6h-4      0.00000
pop of  0Cr 6h-3      0.00000
pop of  0Cr 6h-2      0.00000
pop of  0Cr 6h-1      0.00000
pop of  0Cr 6h 0      0.00000
pop of  0Cr 6h 1      0.00000
pop of  0Cr 6h 2      0.00000
pop of  0Cr 6h 3      0.00000
pop of  0Cr 6h 4      0.00000
pop of  0Cr 6h 5      0.00000
pop of  0Cr 7h-5      0.00000
pop of  0Cr 7h-4      0.00000
pop of  0Cr 7h-3      0.00000
pop of  0Cr 7h-2      0.00000
pop of  0Cr 7h-1      0.00003
pop of  0Cr 7h 0      0.00003
pop of  0Cr 7h 1      0.00000
pop of  0Cr 7h 2      0.00000
pop of  0Cr 7h 3      0.00000
pop of  0Cr 7h 4      0.00000
pop of  0Cr 7h 5      0.00000
pop of  1O 2s        1.87871
pop of  1O 3s        0.00080
pop of  1O 4s        0.00018
pop of  1O 5s        0.00270
pop of  1O 6s        0.00757
pop of  1O 2px       1.65064
pop of  1O 2py       1.86356
pop of  1O 2pz       1.54859
pop of  1O 3px       0.00135
pop of  1O 3py       0.00261
pop of  1O 3pz       0.00045
pop of  1O 4px       0.00038
pop of  1O 4py       0.00049
pop of  1O 4pz       0.00038
pop of  1O 5px       0.00726
pop of  1O 5py       0.01474
pop of  1O 5pz       0.00251
pop of  1O 6px       0.00371
pop of  1O 6py       0.00806
pop of  1O 6pz       0.00306
pop of  1O 3dxy      0.00000
pop of  1O 3dyz      0.00007
pop of  1O 3dz^2     0.00014
pop of  1O 3dxz      0.00010
pop of  1O 3dx2-y2    0.00000
pop of  1O 4dxy      0.00000
pop of  1O 4dyz      0.00078
pop of  1O 4dz^2     0.00130
pop of  1O 4dxz      0.00113
pop of  1O 4dx2-y2    0.00000
pop of  1O 5dxy      0.00002
pop of  1O 5dyz      0.00420
pop of  1O 5dz^2     0.00247
pop of  1O 5dxz      0.00445
pop of  1O 5dx2-y2    0.00002
pop of  1O 6dxy      0.00027
pop of  1O 6dyz      0.00833
pop of  1O 6dz^2     0.00343
pop of  1O 6dxz      0.00502
pop of  1O 6dx2-y2    0.00028
pop of  1O 4fy^3     0.00000
pop of  1O 4fxyz     0.00000
pop of  1O 4fyz^2    0.00001
pop of  1O 4fz^3     0.00003
pop of  1O 4fxz^2    0.00001
pop of  1O 4fzx^2    0.00000
pop of  1O 4fx^3     0.00000
pop of  1O 5fy^3     0.00000
pop of  1O 5fxyz     0.00000
pop of  1O 5fyz^2    0.00022
pop of  1O 5fz^3     0.00013
pop of  1O 5fxz^2    0.00021
pop of  1O 5fzx^2    0.00000
pop of  1O 5fx^3     0.00000
pop of  1O 6fy^3     0.00000
pop of  1O 6fxyz     0.00018
pop of  1O 6fyz^2    0.00089
pop of  1O 6fz^3     0.00023
pop of  1O 6fxz^2    0.00036
pop of  1O 6fzx^2    0.00019
pop of  1O 6fx^3     0.00000
pop of  1O 5g-4      0.00000
pop of  1O 5g-3      0.00000
pop of  1O 5g-2      0.00000
pop of  1O 5g-1      0.00000
pop of  1O 5g 0      0.00001
pop of  1O 5g 1      0.00001
pop of  1O 5g 2      0.00000
pop of  1O 5g 3      0.00000
pop of  1O 5g 4      0.00000
pop of  1O 6g-4      0.00000
pop of  1O 6g-3      0.00000
pop of  1O 6g-2      0.00002
pop of  1O 6g-1      0.00002
pop of  1O 6g 0      0.00003
pop of  1O 6g 1      0.00001
pop of  1O 6g 2      0.00002
pop of  1O 6g 3      0.00000
pop of  1O 6g 4      0.00000
 ** Mulliken atomic charges  **
charge of  0Cr =      1.03237
charge of  1O =     -1.03237

******** <class 'pyscf.mcscf.mc1step.CASSCF'> flags ********
CAS (7e+3e, 9o), ncore = 5, nvir = 200
max_cycle_macro = 50
max_cycle_micro = 4
conv_tol = 1e-07
conv_tol_grad = None
orbital rotation max_stepsize = 0.02
augmented hessian ah_max_cycle = 30
augmented hessian ah_conv_tol = 1e-12
augmented hessian ah_linear dependence = 1e-14
augmented hessian ah_level shift = 0
augmented hessian ah_start_tol = 2.5
augmented hessian ah_start_cycle = 3
augmented hessian ah_grad_trust_region = 3
kf_trust_region = 3
kf_interval = 4
ci_response_space = 4
ci_grad_trust_region = 3
with_dep4 0
natorb = False
canonicalization = True
sorting_mo_energy = False
chkfile = ./scratch/52852/tmpy4D5wR
max_memory 4000 MB (current use 2607 MB)
internal_rotation = False

******** SHCI flags ********
executable             = /home/bamu3429/softwares/dice/Dice
mpiprefix              = srun -n20
scratchDirectory       = ./scratch/52852
integralFile           = ./FCIDUMP
configFile             = ./input.dat
outputFile             = ./output.dat
maxIter                = 6
sweep_iter             = []
sweep_epsilon          = []
nPTiter                = 0
Stochastic             = True
fullrestart            = False
restart                = False
num_thrds              = 12
memory                 = None

CASCI E = -101.847537869651  S^2 = 6.0000000
Set conv_tol_grad to 0.000316228
macro iter 1 (21 JK  4 micro), CASSCF E = -101.871376072479  dE = -0.023838203  S^2 = 6.0000000
               |grad[o]|=0.00641  |grad[c]|= None  |ddm|=0.117
macro iter 2 (21 JK  4 micro), CASSCF E = -101.912120296307  dE = -0.040744224  S^2 = 6.0000000
               |grad[o]|=0.0891  |grad[c]|= None  |ddm|=0.156
macro iter 3 (21 JK  4 micro), CASSCF E = -101.935104320794  dE = -0.022984024  S^2 = 6.0000000
               |grad[o]|=0.0969  |grad[c]|= None  |ddm|=0.0421
macro iter 4 (21 JK  4 micro), CASSCF E = -101.959852933633  dE = -0.024748613  S^2 = 6.0000000
               |grad[o]|=0.0833  |grad[c]|= None  |ddm|=0.0825
macro iter 5 (20 JK  4 micro), CASSCF E = -101.974734071133  dE = -0.014881138  S^2 = 6.0000000
               |grad[o]|=0.0761  |grad[c]|= None  |ddm|=0.131
macro iter 6 (11 JK  4 micro), CASSCF E = -101.975813461654  dE = -0.0010793905  S^2 = 6.0000000
               |grad[o]|=0.0288  |grad[c]|= None  |ddm|=0.0756
macro iter 7 (10 JK  4 micro), CASSCF E = -101.975822908325  dE = -9.4466715e-06  S^2 = 6.0000000
               |grad[o]|=0.002  |grad[c]|= None  |ddm|=0.00697
macro iter 8 (3 JK  1 micro), CASSCF E = -101.975822987501  dE = -7.9175692e-08  S^2 = 6.0000000
               |grad[o]|=0.000226  |grad[c]|= None  |ddm|=0.000404
1-step CASSCF converged in 8 macro (128 JK 29 micro) steps
CASSCF canonicalization
CASSCF energy = -101.975822987501


--------------------------------------------------
                 ICMPSPT CALCULATION              
--------------------------------------------------

Perturbation type: MRLCC
With fully internally contracted scheme
With third order correction

Preparing necessary RDMs
......production of RDMs took      45.13 sec
Reading binary 4RDM from DICE
......reading the RDM took         28.58 sec

(GOOD) Trace 4RDM:   5040.0 =   10*    9*    8*    7
(GOOD) Trace 3RDM:    720.0 =   10*    9*    8
(GOOD) Trace 2RDM:     90.0 =   10*    9
(GOOD) Trace 1RDM:     10.0 =   10

Producing the integrals
......production of INT took     577.86 sec

Energy_core = -104.44729464
Energy      = -101.97582299

WARNING: Have to use natural orbitals from CAASCF
         offdiagonal elements:    0.64439449

Basic ingredients written to int/
