 &FCI NORB=3 ,NELEC=4 ,MS2=2,
  ORBSYM=1,1,1,
  ISYM=1,
 &END
  7.858626806350e-01    1  1  1  1
  1.304228286803e-12    2  1  1  1
  4.028884692204e-02    2  1  2  1
  7.259200550000e-01    2  2  1  1
  1.834680670733e-12    2  2  2  1
  8.284245248648e-01    2  2  2  2
  2.489917477878e-11    3  1  1  1
  2.892730341338e-11    3  1  2  2
  4.028884692199e-02    3  1  3  1
  1.448712756141e-12    3  2  2  1
  4.167609751284e-02    3  2  3  2
  7.259200550002e-01    3  3  1  1
  1.682878491979e-12    3  3  2  1
  7.450723298394e-01    3  3  2  2
  3.186470605062e-11    3  3  3  1
  8.284245248654e-01    3  3  3  3
 -2.763263398074e+00    1  1  0  0
 -1.619097945511e-12    2  1  0  0
 -2.818493067245e+00    2  2  0  0
 -4.507775707417e-11    3  1  0  0
  1.384255193151e-12    3  2  0  0
 -2.818493067246e+00    3  3  0  0
     -8.799827194919   0  0  0  0
