 &FCI NORB=6 ,NELEC=6 ,MS2=6,
  ORBSYM=1,1,1,1,1,1,
  ISYM=1,
 &END
  2.758442928807e-01    1  1  1  1
  8.947210147350e-04    2  1  1  1
  5.277169917254e-02    2  1  2  1
  2.696028409940e-01    2  2  1  1
 -6.777634750807e-03    2  2  2  1
  2.935977564561e-01    2  2  2  2
  3.095469643378e-04    3  1  1  1
 -2.170635852958e-03    3  1  2  1
 -2.234971611368e-03    3  1  2  2
  5.660839375580e-02    3  1  3  1
  1.928818874634e-03    3  2  1  1
 -2.981723646323e-03    3  2  2  1
  3.553923848660e-03    3  2  2  2
  3.754698203178e-03    3  2  3  1
  1.408068600258e-02    3  2  3  2
  2.686713507383e-01    3  3  1  1
  1.690617075905e-03    3  3  2  1
  2.546012109517e-01    3  3  2  2
  5.681960632685e-03    3  3  3  1
  1.453256869565e-03    3  3  3  2
  2.942357550759e-01    3  3  3  3
 -2.076775411584e-03    4  1  1  1
 -5.928089138004e-04    4  1  2  1
  1.328428440076e-03    4  1  2  2
  3.063188053136e-03    4  1  3  1
  1.792776731997e-04    4  1  3  2
 -5.417222670666e-03    4  1  3  3
  5.907197059039e-02    4  1  4  1
 -1.021898062461e-02    4  2  1  1
  4.315962690395e-03    4  2  2  1
 -4.472690098638e-03    4  2  2  2
  8.368384334138e-04    4  2  3  1
  4.193978826339e-04    4  2  3  2
 -8.503442990348e-03    4  2  3  3
 -1.899744621794e-04    4  2  4  1
  1.724276239246e-02    4  2  4  2
 -4.048105042969e-03    4  3  1  1
  1.378991513484e-03    4  3  2  1
 -4.316743086878e-03    4  3  2  2
 -8.224939639871e-03    4  3  3  1
 -1.715205784372e-04    4  3  3  2
 -7.601158233090e-03    4  3  3  3
  2.157446484724e-05    4  3  4  1
  8.002581264585e-04    4  3  4  2
  1.509203048014e-02    4  3  4  3
  2.859989549575e-01    4  4  1  1
  1.320778958708e-03    4  4  2  1
  2.703646660782e-01    4  4  2  2
  1.597175911968e-03    4  4  3  1
  3.072906275058e-03    4  4  3  2
  2.664559257180e-01    4  4  3  3
  6.933250999339e-03    4  4  4  1
 -1.305540068551e-02    4  4  4  2
 -4.442803413745e-03    4  4  4  3
  3.161900014418e-01    4  4  4  4
  1.895753529318e-02    5  1  1  1
  8.568569352554e-04    5  1  2  1
  9.864565739874e-03    5  1  2  2
 -6.518716161023e-05    5  1  3  1
  4.487045593875e-04    5  1  3  2
  9.455276205879e-03    5  1  3  3
 -1.183286138226e-03    5  1  4  1
 -1.073472431530e-02    5  1  4  2
 -9.099996827728e-04    5  1  4  3
  3.009314921860e-02    5  1  4  4
  2.096716117655e-02    5  1  5  1
  2.575864786965e-04    5  2  1  1
 -1.933663450958e-02    5  2  2  1
  5.487437644834e-03    5  2  2  2
 -1.848203521404e-03    5  2  3  1
  1.986507640891e-03    5  2  3  2
 -8.104534217202e-04    5  2  3  3
 -1.216581410359e-02    5  2  4  1
 -1.476620719351e-03    5  2  4  2
 -2.510414409882e-05    5  2  4  3
 -3.369975692716e-03    5  2  4  4
  4.545577653113e-04    5  2  5  1
  1.697598233415e-02    5  2  5  2
 -5.692522958265e-04    5  3  1  1
 -1.418782535964e-03    5  3  2  1
  1.671262907959e-03    5  3  2  2
 -1.555703072042e-02    5  3  3  1
 -1.015822059568e-03    5  3  3  2
 -2.640141827005e-03    5  3  3  3
  1.561992103724e-03    5  3  4  1
  1.036182997770e-04    5  3  4  2
  2.708462632723e-03    5  3  4  3
 -1.643498393833e-03    5  3  4  4
 -4.693919475421e-04    5  3  5  1
  1.997599019650e-03    5  3  5  2
  7.428584172864e-03    5  3  5  3
  6.743284899254e-04    5  4  1  1
 -1.233439716532e-02    5  4  2  1
 -6.143850814103e-04    5  4  2  2
  2.362726825989e-03    5  4  3  1
  1.372757053311e-04    5  4  3  2
  3.476980268509e-03    5  4  3  3
  8.111127966977e-03    5  4  4  1
 -3.972752238891e-03    5  4  4  2
 -1.776028945527e-03    5  4  4  3
  3.473491697095e-03    5  4  4  4
  1.125251872135e-03    5  4  5  1
  1.163220241388e-04    5  4  5  2
 -6.954611607082e-04    5  4  5  3
  1.428969857006e-02    5  4  5  4
  3.534921639332e-01    5  5  1  1
  4.520858684304e-03    5  5  2  1
  3.516087034680e-01    5  5  2  2
 -2.828526214556e-04    5  5  3  1
  1.077463700472e-02    5  5  3  2
  3.308251766368e-01    5  5  3  3
 -2.027708014511e-03    5  5  4  1
 -3.174983329788e-02    5  5  4  2
 -1.587544757517e-02    5  5  4  3
  3.922281959718e-01    5  5  4  4
  7.948804593342e-02    5  5  5  1
  1.127050370476e-03    5  5  5  2
 -1.216167295129e-03    5  5  5  3
  5.450371684912e-03    5  5  5  4
  7.538750030104e-01    5  5  5  5
  1.130278921742e-03    6  1  1  1
  9.756395675955e-03    6  1  2  1
  3.720618620947e-03    6  1  2  2
  3.993918572119e-03    6  1  3  1
  1.414931535815e-03    6  1  3  2
 -8.071006836619e-03    6  1  3  3
 -1.941574064284e-02    6  1  4  1
  1.912428647696e-03    6  1  4  2
  1.962306252582e-03    6  1  4  3
  1.933775411103e-03    6  1  4  4
  1.269241658691e-03    6  1  5  1
 -8.474790336958e-04    6  1  5  2
 -3.295775093083e-03    6  1  5  3
 -4.355381595437e-03    6  1  5  4
  2.831657261203e-03    6  1  5  5
  1.885770173682e-02    6  1  6  1
 -1.523254501684e-02    6  2  1  1
  1.014111016978e-02    6  2  2  1
 -1.544637299204e-02    6  2  2  2
  2.739182072340e-03    6  2  3  1
 -9.909196315880e-04    6  2  3  2
 -1.869199745759e-02    6  2  3  3
  2.857882811831e-03    6  2  4  1
  3.306129765046e-03    6  2  4  2
  3.681588329499e-03    6  2  4  3
 -2.127493828126e-02    6  2  4  4
 -9.434464634563e-03    6  2  5  1
 -7.158320171930e-03    6  2  5  2
 -1.499071987292e-03    6  2  5  3
 -4.382162758969e-03    6  2  5  4
 -6.683371659047e-02    6  2  5  5
  3.359700467450e-03    6  2  6  1
  2.192233972503e-02    6  2  6  2
 -8.635475675463e-03    6  3  1  1
  3.006610973603e-03    6  3  2  1
 -9.090657422998e-03    6  3  2  2
 -1.773756919223e-02    6  3  3  1
 -1.340451876288e-03    6  3  3  2
 -7.473128523672e-03    6  3  3  3
  3.982275905188e-03    6  3  4  1
  2.896757667396e-03    6  3  4  2
  2.326456759224e-03    6  3  4  3
 -1.358144425210e-02    6  3  4  4
 -6.875969893743e-03    6  3  5  1
 -1.958690561796e-03    6  3  5  2
  6.789171790375e-03    6  3  5  3
 -1.124826987437e-03    6  3  5  4
 -3.648680086488e-02    6  3  5  5
 -4.550093381148e-03    6  3  6  1
  5.527355160577e-03    6  3  6  2
  1.789856539089e-02    6  3  6  3
  2.337392580337e-02    6  4  1  1
  3.231617161448e-03    6  4  2  1
  2.975032476548e-02    6  4  2  2
  4.732397358069e-03    6  4  3  1
  3.172012085703e-03    6  4  3  2
  3.047818888023e-02    6  4  3  3
  4.787504487858e-03    6  4  4  1
 -4.396156890305e-03    6  4  4  2
 -6.270506215051e-03    6  4  4  3
  2.942658229657e-02    6  4  4  4
  1.213637744125e-02    6  4  5  1
 -2.931684139584e-03    6  4  5  2
 -1.480567225790e-03    6  4  5  3
  1.640292448421e-03    6  4  5  4
  1.107714296232e-01    6  4  5  5
 -2.419470742931e-03    6  4  6  1
 -2.101810813535e-02    6  4  6  2
 -1.150521999602e-02    6  4  6  3
  4.490430449470e-02    6  4  6  4
  3.094964470328e-04    6  5  1  1
 -1.985311711919e-03    6  5  2  1
 -8.880874952809e-03    6  5  2  2
 -4.144078414655e-03    6  5  3  1
 -2.231144217981e-03    6  5  3  2
  6.068463204461e-03    6  5  3  3
 -4.348106376501e-03    6  5  4  1
 -4.608126735052e-03    6  5  4  2
 -3.791555662570e-04    6  5  4  3
  1.199073495983e-03    6  5  4  4
  8.105913535864e-04    6  5  5  1
 -3.973097580355e-03    6  5  5  2
 -2.634362283634e-03    6  5  5  3
  8.214533237724e-03    6  5  5  4
 -6.432978559111e-03    6  5  5  5
  4.138273075118e-03    6  5  6  1
 -1.021668720686e-03    6  5  6  2
  1.468151168077e-03    6  5  6  3
 -3.531115283122e-03    6  5  6  4
  3.124492470997e-02    6  5  6  5
  3.402338174429e-01    6  6  1  1
  5.313687324553e-03    6  6  2  1
  3.363122807935e-01    6  6  2  2
 -5.490463197508e-03    6  6  3  1
  8.673824757409e-03    6  6  3  2
  3.332784097193e-01    6  6  3  3
 -2.718678722443e-03    6  6  4  1
 -3.163058209457e-02    6  6  4  2
 -1.889760379787e-02    6  6  4  3
  3.749585424131e-01    6  6  4  4
  6.118246684594e-02    6  6  5  1
 -5.810911173154e-04    6  6  5  2
  1.116304504640e-04    6  6  5  3
  3.089400034175e-03    6  6  5  4
  6.411478167222e-01    6  6  5  5
  3.624838089773e-04    6  6  6  1
 -7.005330903804e-02    6  6  6  2
 -3.078359448225e-02    6  6  6  3
  1.166373195182e-01    6  6  6  4
  8.006063524989e-04    6  6  6  5
  6.443234708297e-01    6  6  6  6
 -1.912125938329e+00    1  1  0  0
 -9.801827772954e-03    2  1  0  0
 -1.746548192228e+00    2  2  0  0
 -3.088077876067e-03    3  1  0  0
 -4.141658164032e-02    3  2  0  0
 -1.699469051493e+00    3  3  0  0
  3.917207316982e-03    4  1  0  0
  1.352508952517e-01    4  2  0  0
  7.403929332705e-02    4  3  0  0
 -1.910808436448e+00    4  4  0  0
 -2.807789007366e-01    5  1  0  0
 -3.064574752223e-03    5  2  0  0
  6.718756251810e-03    5  3  0  0
 -2.041828730977e-02    5  4  0  0
 -3.302758361437e+00    5  5  0  0
 -1.809633106829e-03    6  1  0  0
  3.106067602477e-01    6  2  0  0
  1.630885487719e-01    6  3  0  0
 -5.175416899827e-01    6  4  0  0
  1.386633761503e-02    6  5  0  0
 -3.057576565036e+00    6  6  0  0
    -76.226582663898   0  0  0  0
