#INFO: **** input file is /projects/bamu3429/BENCHMARK/fresh_atoms/MRPT/vqz/atoms/Cr_0/mrpt.py ****
import json
from pyscf import gto,scf,mcscf, fci, lo, ci, cc
from pyscf.scf import ROHF, UHF,ROKS
import numpy as np
import pandas as pd

# THIS IS WERE IT STARTS ====================================

df=json.load(open("../../../trail.json"))

spins={'Sc':1, 'Ti':2, 'V':3, 'Cr':6, 'Mn':5, 'Fe':4, 'Cu':1}

nd={'Sc':(1,0), 'Ti':(2,0), 'V':(3,0), 'Cr':(5,0), 'Mn':(5,0), 'Fe':(5,1), 'Cu':(5,5)}

cas={'Sc':3, 'Ti':4, 'V':5, 'Cr':6, 'Mn':7, 'Fe':8, 'Cu':11}

datacsv={}
for nm in ['atom','charge','method','basis','pseudopotential','hf',
           'totalenergy','totalenergy-stocherr','totalenergy-syserr']:
  datacsv[nm]=[]

basis='vqz'
el='Cr'
charge=0

mol=gto.Mole()
mol.ecp={}
mol.basis={}
mol.ecp[el]=gto.basis.parse_ecp(df[el]['ecp'])
mol.basis[el]=gto.basis.parse(df[el][basis])
mol.charge=charge
if el == 'Cr' or el == 'Cu':
  mol.spin=spins[el]-charge
else:
  mol.spin=spins[el]+charge
mol.build(atom="%s 0. 0. 0."%el,verbose=4)

m=ROHF(mol)
m.level_shift=1000.0
dm=m.from_chk("../../../../HF/atoms/"+el+basis+str(charge)+".chk")
hf=m.kernel(dm)
m.analyze()

from pyscf.shciscf import shci
mc = shci.SHCISCF(m, 6, cas[el]-charge)
#mc.fcisolver.conv_tol = 1e-14
mc.fcisolver.mpiprefix="srun -n20"
mc.fcisolver.num_thrds=12
mc.verbose = 4
cas=mc.kernel()[0]
 
from pyscf.icmpspt import icmpspt
pt=icmpspt.icmpspt(mc,rdmM=500, PTM=1000,\
                          pttype="MRLCC",\
                          third_order=True,\
                          fully_ic=True,\
                          do_dm4=True)

datacsv['atom'].append(el)
datacsv['charge'].append(charge)
datacsv['method'].append('MRPT')
datacsv['basis'].append(basis)
datacsv['pseudopotential'].append('trail')
datacsv['hf'].append(hf)
datacsv['totalenergy'].append(cas+pt)
datacsv['totalenergy-stocherr'].append(0.0)
datacsv['totalenergy-syserr'].append(0.0)
pd.DataFrame(datacsv).to_csv(el+".csv",index=False)

#INFO: ******************** input file end ********************


System: ('Linux', 'bnode0302.rc.int.colorado.edu', '3.10.0-514.41.1.el7.x86_64', '#1 SMP Wed Jan 17 10:26:16 EST 2018', 'x86_64', 'x86_64')  Threads 28
Python 2.7.11 (default, Mar 22 2016, 01:42:54) 
[GCC Intel(R) C++ gcc 4.8 mode]
numpy 1.11.1  scipy 0.17.1
Date: Thu Apr 19 10:12:05 2018
PySCF version 1.4.6
PySCF path  /projects/bamu3429/softwares/pyscf_uptodate/pyscf
GIT ORIG_HEAD f3591ef22170896a4cdc2aadaa6f5da388ffcadb
GIT HEAD      ref: refs/heads/master
GIT master branch  1847583fb1d2472321833d3c71c8b7008e5fabf5

[INPUT] VERBOSE 4
[INPUT] num atoms = 1
[INPUT] num electrons = 14
[INPUT] charge = 0
[INPUT] spin (= nelec alpha-beta = 2S) = 6
[INPUT] symmetry False subgroup None
[INPUT]  1 Cr     0.000000000000   0.000000000000   0.000000000000 AA    0.000000000000   0.000000000000   0.000000000000 Bohr
[INPUT] ---------------- BASIS SET ---------------- 
[INPUT] l, kappa, [nprim/nctr], expnt,             c_1 c_2 ...
[INPUT] Cr
[INPUT] 0    0    [12   /1   ]  41.45590127       0.010332
                                22.20089455       -0.091393
                                12.37022616       0.412444
                                7.15443966        -0.722409
                                3.63012556        0.039693
                                1.88942247        0.321055
                                1.04381355        0.652182
                                0.47307333        0.264443
                                0.22628807        -0.008646
                                0.10750747        0.012188
                                0.05101028        -0.00242
                                0.0242372         0.001733
[INPUT] 0    0    [12   /1   ]  41.45590127       -0.001971
                                22.20089455       0.019152
                                12.37022616       -0.094562
                                7.15443966        0.178991
                                3.63012556        -0.015716
                                1.88942247        -0.084882
                                1.04381355        -0.243744
                                0.47307333        -0.214624
                                0.22628807        0.055092
                                0.10750747        0.415903
                                0.05101028        0.543473
                                0.0242372         0.170131
[INPUT] 0    0    [12   /1   ]  41.45590127       -0.006227
                                22.20089455       0.071299
                                12.37022616       -0.410892
                                7.15443966        0.917584
                                3.63012556        -0.221951
                                1.88942247        -1.345636
                                1.04381355        -0.06992
                                0.47307333        0.755692
                                0.22628807        0.739114
                                0.10750747        0.112359
                                0.05101028        -0.547421
                                0.0242372         -0.284669
[INPUT] 0    0    [12   /1   ]  41.45590127       -0.006182
                                22.20089455       0.080693
                                12.37022616       -0.526764
                                7.15443966        1.364382
                                3.63012556        -0.812528
                                1.88942247        -2.239916
                                1.04381355        1.755013
                                0.47307333        1.667635
                                0.22628807        -1.426447
                                0.10750747        -1.028337
                                0.05101028        0.585035
                                0.0242372         0.607504
[INPUT] 0    0    [12   /1   ]  41.45590127       -2.6e-05
                                22.20089455       -0.072001
                                12.37022616       0.777417
                                7.15443966        -2.790553
                                3.63012556        4.512611
                                1.88942247        -0.555137
                                1.04381355        -4.087256
                                0.47307333        3.038568
                                0.22628807        0.867446
                                0.10750747        -2.097137
                                0.05101028        -0.014926
                                0.0242372         0.887447
[INPUT] 0    0    [1    /1   ]  0.0242372            1
[INPUT] 0    0    [1    /1   ]  0.01151614           1
[INPUT] 1    0    [12   /1   ]  28.88080716       -0.002973
                                13.19380569       0.044202
                                7.25722596        -0.232476
                                4.84342676        0.167654
                                2.76949909        0.179744
                                1.50719356        0.46058
                                0.72516508        0.338218
                                0.36385743        0.097984
                                0.16204617        0.012145
                                0.07447705        -0.000948
                                0.03422994        0.000821
                                0.01573221        -0.00022
[INPUT] 1    0    [12   /1   ]  28.88080716       0.000536
                                13.19380569       -0.009363
                                7.25722596        0.054752
                                4.84342676        -0.042977
                                2.76949909        -0.049244
                                1.50719356        -0.128712
                                0.72516508        -0.11682
                                0.36385743        0.044517
                                0.16204617        0.322192
                                0.07447705        0.482878
                                0.03422994        0.275764
                                0.01573221        0.025472
[INPUT] 1    0    [12   /1   ]  28.88080716       -0.000601
                                13.19380569       0.036419
                                7.25722596        -0.319649
                                4.84342676        0.265625
                                2.76949909        0.800568
                                1.50719356        0.1134
                                0.72516508        -0.940194
                                0.36385743        -0.356195
                                0.16204617        0.582848
                                0.07447705        0.421307
                                0.03422994        0.024352
                                0.01573221        0.004528
[INPUT] 1    0    [12   /1   ]  28.88080716       0.001606
                                13.19380569       0.051311
                                7.25722596        -0.743081
                                4.84342676        1.253251
                                2.76949909        1.03744
                                1.50719356        -1.776327
                                0.72516508        -0.552415
                                0.36385743        1.568643
                                0.16204617        -0.082341
                                0.07447705        -0.666944
                                0.03422994        -0.027493
                                0.01573221        -0.01175
[INPUT] 1    0    [12   /1   ]  28.88080716       0.013614
                                13.19380569       -0.041885
                                7.25722596        -1.136499
                                4.84342676        3.740841
                                2.76949909        -2.3618
                                1.50719356        -1.491548
                                0.72516508        2.916436
                                0.36385743        -1.186695
                                0.16204617        -1.003943
                                0.07447705        1.033584
                                0.03422994        -0.005965
                                0.01573221        0.033567
[INPUT] 1    0    [1    /1   ]  0.01573221           1
[INPUT] 1    0    [1    /1   ]  0.00723058           1
[INPUT] 2    0    [10   /1   ]  46.50908408       0.000358
                                21.60133229       -0.010512
                                11.03652449       0.11118
                                4.54288797        0.164184
                                2.18180243        0.267436
                                1.04009058        0.310836
                                0.48262909        0.28353
                                0.21570372        0.173079
                                0.10059873        0.057279
                                0.04653409        0.00937
[INPUT] 2    0    [10   /1   ]  46.50908408       0.000742
                                21.60133229       0.005602
                                11.03652449       -0.103642
                                4.54288797        -0.218406
                                2.18180243        -0.413398
                                1.04009058        -0.079422
                                0.48262909        0.294538
                                0.21570372        0.416612
                                0.10059873        0.235487
                                0.04653409        0.050239
[INPUT] 2    0    [10   /1   ]  46.50908408       -0.00365
                                21.60133229       0.008162
                                11.03652449       0.079193
                                4.54288797        0.433939
                                2.18180243        0.349419
                                1.04009058        -0.696856
                                0.48262909        -0.418157
                                0.21570372        0.309031
                                0.10059873        0.451053
                                0.04653409        0.102595
[INPUT] 2    0    [10   /1   ]  46.50908408       2e-06
                                21.60133229       -0.017312
                                11.03652449       0.289925
                                4.54288797        0.891377
                                2.18180243        -1.014212
                                1.04009058        -0.495442
                                0.48262909        0.952535
                                0.21570372        0.034125
                                0.10059873        -0.457461
                                0.04653409        -0.126771
[INPUT] 2    0    [1    /1   ]  0.04653409           1
[INPUT] 2    0    [1    /1   ]  0.02152533           1
[INPUT] 3    0    [1    /1   ]  3.786904             1
[INPUT] 3    0    [1    /1   ]  1.303251             1
[INPUT] 3    0    [1    /1   ]  0.448509             1
[INPUT] 3    0    [1    /1   ]  0.1543527            1
[INPUT] 4    0    [1    /1   ]  3.665821             1
[INPUT] 4    0    [1    /1   ]  1.288052             1
[INPUT] 4    0    [1    /1   ]  0.45258017           1
[INPUT] 5    0    [1    /1   ]  3.056986             1
[INPUT] 5    0    [1    /1   ]  1.07412687           1
nuclear repulsion = 0
number of shells = 29
number of NR pGTOs = 535
number of NR cGTOs = 135
basis = {'Cr': [[0, [41.45590127, 0.010332], [22.20089455, -0.091393], [12.37022616, 0.412444], [7.15443966, -0.722409], [3.63012556, 0.039693], [1.88942247, 0.321055], [1.04381355, 0.652182], [0.47307333, 0.264443], [0.22628807, -0.008646], [0.10750747, 0.012188], [0.05101028, -0.00242], [0.0242372, 0.001733]], [0, [41.45590127, -0.001971], [22.20089455, 0.019152], [12.37022616, -0.094562], [7.15443966, 0.178991], [3.63012556, -0.015716], [1.88942247, -0.084882], [1.04381355, -0.243744], [0.47307333, -0.214624], [0.22628807, 0.055092], [0.10750747, 0.415903], [0.05101028, 0.543473], [0.0242372, 0.170131]], [0, [41.45590127, -0.006227], [22.20089455, 0.071299], [12.37022616, -0.410892], [7.15443966, 0.917584], [3.63012556, -0.221951], [1.88942247, -1.345636], [1.04381355, -0.06992], [0.47307333, 0.755692], [0.22628807, 0.739114], [0.10750747, 0.112359], [0.05101028, -0.547421], [0.0242372, -0.284669]], [0, [41.45590127, -0.006182], [22.20089455, 0.080693], [12.37022616, -0.526764], [7.15443966, 1.364382], [3.63012556, -0.812528], [1.88942247, -2.239916], [1.04381355, 1.755013], [0.47307333, 1.667635], [0.22628807, -1.426447], [0.10750747, -1.028337], [0.05101028, 0.585035], [0.0242372, 0.607504]], [0, [41.45590127, -2.6e-05], [22.20089455, -0.072001], [12.37022616, 0.777417], [7.15443966, -2.790553], [3.63012556, 4.512611], [1.88942247, -0.555137], [1.04381355, -4.087256], [0.47307333, 3.038568], [0.22628807, 0.867446], [0.10750747, -2.097137], [0.05101028, -0.014926], [0.0242372, 0.887447]], [0, [0.0242372, 1.0]], [0, [0.01151614, 1.0]], [1, [28.88080716, -0.002973], [13.19380569, 0.044202], [7.25722596, -0.232476], [4.84342676, 0.167654], [2.76949909, 0.179744], [1.50719356, 0.46058], [0.72516508, 0.338218], [0.36385743, 0.097984], [0.16204617, 0.012145], [0.07447705, -0.000948], [0.03422994, 0.000821], [0.01573221, -0.00022]], [1, [28.88080716, 0.000536], [13.19380569, -0.009363], [7.25722596, 0.054752], [4.84342676, -0.042977], [2.76949909, -0.049244], [1.50719356, -0.128712], [0.72516508, -0.11682], [0.36385743, 0.044517], [0.16204617, 0.322192], [0.07447705, 0.482878], [0.03422994, 0.275764], [0.01573221, 0.025472]], [1, [28.88080716, -0.000601], [13.19380569, 0.036419], [7.25722596, -0.319649], [4.84342676, 0.265625], [2.76949909, 0.800568], [1.50719356, 0.1134], [0.72516508, -0.940194], [0.36385743, -0.356195], [0.16204617, 0.582848], [0.07447705, 0.421307], [0.03422994, 0.024352], [0.01573221, 0.004528]], [1, [28.88080716, 0.001606], [13.19380569, 0.051311], [7.25722596, -0.743081], [4.84342676, 1.253251], [2.76949909, 1.03744], [1.50719356, -1.776327], [0.72516508, -0.552415], [0.36385743, 1.568643], [0.16204617, -0.082341], [0.07447705, -0.666944], [0.03422994, -0.027493], [0.01573221, -0.01175]], [1, [28.88080716, 0.013614], [13.19380569, -0.041885], [7.25722596, -1.136499], [4.84342676, 3.740841], [2.76949909, -2.3618], [1.50719356, -1.491548], [0.72516508, 2.916436], [0.36385743, -1.186695], [0.16204617, -1.003943], [0.07447705, 1.033584], [0.03422994, -0.005965], [0.01573221, 0.033567]], [1, [0.01573221, 1.0]], [1, [0.00723058, 1.0]], [2, [46.50908408, 0.000358], [21.60133229, -0.010512], [11.03652449, 0.11118], [4.54288797, 0.164184], [2.18180243, 0.267436], [1.04009058, 0.310836], [0.48262909, 0.28353], [0.21570372, 0.173079], [0.10059873, 0.057279], [0.04653409, 0.00937]], [2, [46.50908408, 0.000742], [21.60133229, 0.005602], [11.03652449, -0.103642], [4.54288797, -0.218406], [2.18180243, -0.413398], [1.04009058, -0.079422], [0.48262909, 0.294538], [0.21570372, 0.416612], [0.10059873, 0.235487], [0.04653409, 0.050239]], [2, [46.50908408, -0.00365], [21.60133229, 0.008162], [11.03652449, 0.079193], [4.54288797, 0.433939], [2.18180243, 0.349419], [1.04009058, -0.696856], [0.48262909, -0.418157], [0.21570372, 0.309031], [0.10059873, 0.451053], [0.04653409, 0.102595]], [2, [46.50908408, 2e-06], [21.60133229, -0.017312], [11.03652449, 0.289925], [4.54288797, 0.891377], [2.18180243, -1.014212], [1.04009058, -0.495442], [0.48262909, 0.952535], [0.21570372, 0.034125], [0.10059873, -0.457461], [0.04653409, -0.126771]], [2, [0.04653409, 1.0]], [2, [0.02152533, 1.0]], [3, [3.786904, 1.0]], [3, [1.303251, 1.0]], [3, [0.448509, 1.0]], [3, [0.1543527, 1.0]], [4, [3.665821, 1.0]], [4, [1.288052, 1.0]], [4, [0.45258017, 1.0]], [5, [3.056986, 1.0]], [5, [1.07412687, 1.0]]]}
ecp = {'Cr': [10, [[-1, [[], [[13.07675203, 14.0]], [[15.15807582, 1258.1555038], [4.62785686, -98.60998187], [15.41136599, -6552.46055066], [15.38690637, 5353.09061557]], [[5.24897308, 183.07452839]]]], [0, [[], [], [[9.77680844, -91901.2080948], [9.95980111, 96320.14803227], [8.62275214, 3928.3135917], [12.29288144, -10977.62459544], [18.41316592, -1741.60409682], [16.38541961, 4413.26493033]], []]], [1, [[], [], [[12.00099996, -22156.17142851], [11.46524435, 21551.07876111], [16.23852226, 3703.78784703], [18.43861108, -1424.18632323], [8.88877941, -1964.93568469], [7.52644784, 317.50498882]], []]], [2, [[], [], [[11.1066837, -5435.29666496], [8.49801115, 7350.69608766], [12.28065533, 2443.80334995], [8.1885354, -5401.76770998], [14.34306836, 3881.23075486], [15.24784181, -2855.87137953]], []]]]]}
CPU time:         3.56


******** <class 'pyscf.scf.rohf.ROHF'> flags ********
method = ROHF
initial guess = minao
damping factor = 0
level shift factor = 1000.0
DIIS = <class 'pyscf.scf.diis.CDIIS'>
DIIS start cycle = 1
DIIS space = 8
SCF tol = 1e-09
SCF gradient tol = None
max. SCF cycles = 50
direct_scf = True
direct_scf_tol = 1e-13
chkfile to save SCF result = /rc_scratch/bamu3429/tmp8cLeAT
max_memory 4000 MB (current use 175 MB)
num. doubly occ = 4  num. singly occ = 6
Set gradient conv threshold to 3.16228e-05
init E= -86.2190958111547
  HOMO = 500.048466673989  LUMO = 1000.01453777292
cycle= 1 E= -86.2190958111548  delta_E= -5.68e-14  |g|= 3.41e-06  |ddm|= 3.16e-08

WARN: HOMO 0.0484666736623078 >= LUMO 0.0145377729200654

Extra cycle  E= -86.2190958110518  delta_E= 1.03e-10  |g|= 6.03e-06  |ddm|= 4.72e-05
converged SCF energy = -86.2190958110518
**** MO energy ****
                Roothaan           | alpha              | beta
MO #1   energy= -3.41062540094706  | -3.59662731046838  | -3.22462349113679  occ= 2
MO #2   energy= -2.10418542967463  | -2.32983880006122  | -1.87853205928805  occ= 2
MO #3   energy= -2.10418542967463  | -2.32983880006121  | -1.87853205928804  occ= 2
MO #4   energy= -2.10418542967463  | -2.32983880006121  | -1.87853205928804  occ= 2
MO #5   energy= -0.0793207322805747 | -0.225651638338631 | 0.0670098788331527 occ= 1
MO #6   energy= 0.0145377729200654 | 0.0134197627877658 | 0.015655783052369  occ= 0
MO #7   energy= 0.0145377729200657 | 0.0134197627877658 | 0.0156557830523688 occ= 0
MO #8   energy= 0.0145377729200675 | 0.0134197627877658 | 0.0156557830523689 occ= 0
MO #9   energy= 0.0287462010089022 | 0.026208413227048  | 0.0312842603710824 occ= 0
MO #10  energy= 0.0468878086011574 | 0.0368314322356704 | 0.0569441849666561 occ= 0
MO #11  energy= 0.0468878086011614 | 0.0368314322356703 | 0.0569441849666572 occ= 0
MO #12  energy= 0.0468878086011686 | 0.0368314322356705 | 0.0569441849666564 occ= 0
MO #13  energy= 0.0484666736622378 | -0.368714509524319 | 0.46564796350214   occ= 1
MO #14  energy= 0.048466673662242  | -0.368714509524313 | 0.465647963502143  occ= 1
MO #15  energy= 0.0484666736623046 | -0.368714509524276 | 0.465647963502229  occ= 1
MO #16  energy= 0.0484666736623051 | -0.368714509524274 | 0.465647963502232  occ= 1
MO #17  energy= 0.0484666736623078 | -0.368714509524273 | 0.465647963502233  occ= 1
MO #18  energy= 0.0662763365452254 | 0.0653025287307865 | 0.0672497674656907 occ= 0
MO #19  energy= 0.0662763365452261 | 0.065302528730787  | 0.0672497674656886 occ= 0
MO #20  energy= 0.0662763365452264 | 0.0653025287307866 | 0.0672497674656867 occ= 0
MO #21  energy= 0.0662763365452277 | 0.0653025287307868 | 0.0672497674656887 occ= 0
MO #22  energy= 0.0662763365452278 | 0.0653025287307868 | 0.0672497674656862 occ= 0
MO #23  energy= 0.183800709775114  | 0.148486806774632  | 0.219114612775599  occ= 0
MO #24  energy= 0.183800709775117  | 0.148486806774632  | 0.219114612775601  occ= 0
MO #25  energy= 0.183800709775117  | 0.14848680677463   | 0.2191146127756    occ= 0
MO #26  energy= 0.214312631397671  | 0.198207892389821  | 0.230417419939627  occ= 0
MO #27  energy= 0.214876939008611  | 0.202989257094576  | 0.226764871447951  occ= 0
MO #28  energy= 0.214876939008611  | 0.202989257094577  | 0.22676487144795   occ= 0
MO #29  energy= 0.214876939008613  | 0.202989257094579  | 0.226764871447954  occ= 0
MO #30  energy= 0.214876939008618  | 0.202989257094579  | 0.226764871447959  occ= 0
MO #31  energy= 0.214876939008621  | 0.202989257094581  | 0.22676487144796   occ= 0
MO #32  energy= 0.604281994543752  | 0.588361327501873  | 0.620202661585647  occ= 0
MO #33  energy= 0.604281994543754  | 0.588361327501874  | 0.620202661585646  occ= 0
MO #34  energy= 0.604281994543756  | 0.588361327501871  | 0.620202661585644  occ= 0
MO #35  energy= 0.604281994543756  | 0.588361327501871  | 0.620202661585645  occ= 0
MO #36  energy= 0.604281994543757  | 0.588361327501871  | 0.620202661585644  occ= 0
MO #37  energy= 0.604281994543757  | 0.588361327501874  | 0.620202661585648  occ= 0
MO #38  energy= 0.604281994543766  | 0.588361327501874  | 0.620202661585647  occ= 0
MO #39  energy= 0.669636972549785  | 0.639814507404329  | 0.69945940456187   occ= 0
MO #40  energy= 0.811464221638924  | 0.751945774558941  | 0.870982652242281  occ= 0
MO #41  energy= 0.811464221638933  | 0.75194577455894   | 0.870982652242279  occ= 0
MO #42  energy= 0.811464221638934  | 0.751945774558942  | 0.870982652242281  occ= 0
MO #43  energy= 0.811464221639009  | 0.751945774559001  | 0.870982652242366  occ= 0
MO #44  energy= 0.811464221639015  | 0.75194577455901   | 0.870982652242374  occ= 0
MO #45  energy= 1.17638588711784   | 1.12346367892164   | 1.22930809531403   occ= 0
MO #46  energy= 1.17638588711784   | 1.12346367892165   | 1.22930809531404   occ= 0
MO #47  energy= 1.17638588711785   | 1.12346367892166   | 1.22930809531405   occ= 0
MO #48  energy= 1.82825482549628   | 1.77313343527677   | 1.88337621571579   occ= 0
MO #49  energy= 1.82825482549628   | 1.77313343527677   | 1.88337621571579   occ= 0
MO #50  energy= 1.82825482549628   | 1.77313343527677   | 1.8833762157158    occ= 0
MO #51  energy= 1.82825482549628   | 1.77313343527677   | 1.8833762157158    occ= 0
MO #52  energy= 1.82825482549629   | 1.77313343527677   | 1.8833762157158    occ= 0
MO #53  energy= 1.82825482549629   | 1.77313343527677   | 1.8833762157158    occ= 0
MO #54  energy= 1.82825482549629   | 1.77313343527677   | 1.8833762157158    occ= 0
MO #55  energy= 2.17765231955291   | 2.15366728738796   | 2.20163735171787   occ= 0
MO #56  energy= 2.17765231955291   | 2.15366728738796   | 2.20163735171786   occ= 0
MO #57  energy= 2.17765231955291   | 2.15366728738796   | 2.20163735171786   occ= 0
MO #58  energy= 2.17765231955291   | 2.15366728738796   | 2.20163735171787   occ= 0
MO #59  energy= 2.17765231955292   | 2.15366728738797   | 2.20163735171787   occ= 0
MO #60  energy= 2.17765231955292   | 2.15366728738796   | 2.20163735171787   occ= 0
MO #61  energy= 2.17765231955292   | 2.15366728738796   | 2.20163735171787   occ= 0
MO #62  energy= 2.17765231955292   | 2.15366728738796   | 2.20163735171787   occ= 0
MO #63  energy= 2.17765231955292   | 2.15366728738797   | 2.20163735171787   occ= 0
MO #64  energy= 2.61115011359354   | 2.55927687179003   | 2.66302336314096   occ= 0
MO #65  energy= 3.10933550239898   | 3.02608840440439   | 3.19258263861569   occ= 0
MO #66  energy= 3.10933550239899   | 3.0260884044044    | 3.1925826386157    occ= 0
MO #67  energy= 3.10933550239906   | 3.02608840440446   | 3.19258263861577   occ= 0
MO #68  energy= 3.10933550239906   | 3.02608840440447   | 3.19258263861577   occ= 0
MO #69  energy= 3.10933550239906   | 3.02608840440446   | 3.19258263861577   occ= 0
MO #70  energy= 4.21504133919944   | 4.16036088230401   | 4.26972179609487   occ= 0
MO #71  energy= 4.21504133919945   | 4.16036088230401   | 4.26972179609487   occ= 0
MO #72  energy= 4.21504133919945   | 4.16036088230401   | 4.26972179609487   occ= 0
MO #73  energy= 4.76163835187556   | 4.66337546685559   | 4.85990123689555   occ= 0
MO #74  energy= 4.76163835187556   | 4.66337546685559   | 4.85990123689555   occ= 0
MO #75  energy= 4.76163835187557   | 4.66337546685559   | 4.85990123689555   occ= 0
MO #76  energy= 4.76163835187557   | 4.66337546685559   | 4.85990123689555   occ= 0
MO #77  energy= 4.76163835187557   | 4.6633754668556    | 4.85990123689556   occ= 0
MO #78  energy= 4.76163835187557   | 4.66337546685559   | 4.85990123689555   occ= 0
MO #79  energy= 4.76163835187557   | 4.6633754668556    | 4.85990123689555   occ= 0
MO #80  energy= 6.18426156493218   | 6.15503135213155   | 6.21349177773284   occ= 0
MO #81  energy= 6.18426156493218   | 6.15503135213154   | 6.21349177773283   occ= 0
MO #82  energy= 6.18426156493218   | 6.15503135213154   | 6.21349177773282   occ= 0
MO #83  energy= 6.18426156493218   | 6.15503135213154   | 6.21349177773283   occ= 0
MO #84  energy= 6.18426156493219   | 6.15503135213155   | 6.21349177773284   occ= 0
MO #85  energy= 6.18426156493219   | 6.15503135213154   | 6.21349177773283   occ= 0
MO #86  energy= 6.18426156493219   | 6.15503135213155   | 6.21349177773284   occ= 0
MO #87  energy= 6.18426156493219   | 6.15503135213155   | 6.21349177773284   occ= 0
MO #88  energy= 6.18426156493219   | 6.15503135213156   | 6.21349177773284   occ= 0
MO #89  energy= 6.18426156493219   | 6.15503135213155   | 6.21349177773284   occ= 0
MO #90  energy= 6.1842615649322    | 6.15503135213156   | 6.21349177773285   occ= 0
MO #91  energy= 6.42816857803418   | 6.37499856479263   | 6.48133859127573   occ= 0
MO #92  energy= 6.42816857803418   | 6.37499856479263   | 6.48133859127573   occ= 0
MO #93  energy= 6.42816857803418   | 6.37499856479264   | 6.48133859127574   occ= 0
MO #94  energy= 6.42816857803418   | 6.37499856479263   | 6.48133859127573   occ= 0
MO #95  energy= 6.42816857803419   | 6.37499856479264   | 6.48133859127574   occ= 0
MO #96  energy= 6.42816857803419   | 6.37499856479265   | 6.48133859127575   occ= 0
MO #97  energy= 6.4281685780342    | 6.37499856479264   | 6.48133859127574   occ= 0
MO #98  energy= 6.4281685780342    | 6.37499856479263   | 6.48133859127573   occ= 0
MO #99  energy= 6.4281685780342    | 6.37499856479265   | 6.48133859127575   occ= 0
MO #100 energy= 8.63527366073785   | 8.57216753753551   | 8.69837978191007   occ= 0
MO #101 energy= 8.63527366073786   | 8.57216753753551   | 8.69837978191007   occ= 0
MO #102 energy= 8.63527366073786   | 8.57216753753551   | 8.69837978191007   occ= 0
MO #103 energy= 8.63527366073796   | 8.57216753753559   | 8.69837978191014   occ= 0
MO #104 energy= 8.63527366073796   | 8.57216753753562   | 8.69837978191017   occ= 0
MO #105 energy= 9.2962509289877    | 9.23961803440763   | 9.3528838224981    occ= 0
MO #106 energy= 12.5313915096552   | 12.4476374055106   | 12.6151456137997   occ= 0
MO #107 energy= 12.5313915096552   | 12.4476374055106   | 12.6151456137997   occ= 0
MO #108 energy= 12.5313915096552   | 12.4476374055106   | 12.6151456137997   occ= 0
MO #109 energy= 12.5313915096552   | 12.4476374055106   | 12.6151456137997   occ= 0
MO #110 energy= 12.5313915096552   | 12.4476374055106   | 12.6151456137997   occ= 0
MO #111 energy= 12.5313915096552   | 12.4476374055106   | 12.6151456137997   occ= 0
MO #112 energy= 12.5313915096552   | 12.4476374055106   | 12.6151456137997   occ= 0
MO #113 energy= 12.899611286524    | 12.8443308616414   | 12.9548917114067   occ= 0
MO #114 energy= 12.899611286524    | 12.8443308616414   | 12.9548917114067   occ= 0
MO #115 energy= 12.8996112865241   | 12.8443308616415   | 12.9548917114068   occ= 0
MO #116 energy= 17.2017484552222   | 17.137958161223    | 17.2655387492214   occ= 0
MO #117 energy= 17.2017484552222   | 17.137958161223    | 17.2655387492214   occ= 0
MO #118 energy= 17.2017484552222   | 17.137958161223    | 17.2655387492215   occ= 0
MO #119 energy= 17.2017484552222   | 17.137958161223    | 17.2655387492214   occ= 0
MO #120 energy= 17.2017484552222   | 17.137958161223    | 17.2655387492215   occ= 0
MO #121 energy= 17.2017484552222   | 17.137958161223    | 17.2655387492214   occ= 0
MO #122 energy= 17.2017484552222   | 17.137958161223    | 17.2655387492214   occ= 0
MO #123 energy= 17.2017484552222   | 17.137958161223    | 17.2655387492214   occ= 0
MO #124 energy= 17.2017484552222   | 17.137958161223    | 17.2655387492214   occ= 0
MO #125 energy= 18.1286037383413   | 18.0820181472929   | 18.1751893293897   occ= 0
MO #126 energy= 18.1286037383413   | 18.0820181472929   | 18.1751893293898   occ= 0
MO #127 energy= 18.1286037383413   | 18.0820181472929   | 18.1751893293897   occ= 0
MO #128 energy= 18.1286037383413   | 18.0820181472929   | 18.1751893293897   occ= 0
MO #129 energy= 18.1286037383413   | 18.0820181472928   | 18.1751893293897   occ= 0
MO #130 energy= 18.1286037383413   | 18.0820181472929   | 18.1751893293897   occ= 0
MO #131 energy= 18.1286037383413   | 18.0820181472929   | 18.1751893293897   occ= 0
MO #132 energy= 18.1286037383413   | 18.0820181472929   | 18.1751893293898   occ= 0
MO #133 energy= 18.1286037383413   | 18.0820181472929   | 18.1751893293897   occ= 0
MO #134 energy= 18.1286037383413   | 18.0820181472929   | 18.1751893293897   occ= 0
MO #135 energy= 18.1286037383413   | 18.0820181472929   | 18.1751893293898   occ= 0
 ** Mulliken pop on meta-lowdin orthogonal AOs  **
 ** Mulliken pop  **
pop of  0Cr 3s        1.99996
pop of  0Cr 4s        0.99860
pop of  0Cr 5s        0.00074
pop of  0Cr 6s        0.00032
pop of  0Cr 7s        0.00001
pop of  0Cr 8s        0.00017
pop of  0Cr 9s        0.00020
pop of  0Cr 3px       1.99988
pop of  0Cr 3py       1.99988
pop of  0Cr 3pz       1.99988
pop of  0Cr 4px       0.00008
pop of  0Cr 4py       0.00008
pop of  0Cr 4pz       0.00008
pop of  0Cr 5px       0.00002
pop of  0Cr 5py       0.00002
pop of  0Cr 5pz       0.00002
pop of  0Cr 6px       0.00001
pop of  0Cr 6py       0.00001
pop of  0Cr 6pz       0.00001
pop of  0Cr 7px       0.00000
pop of  0Cr 7py       0.00000
pop of  0Cr 7pz       0.00000
pop of  0Cr 8px       0.00000
pop of  0Cr 8py       0.00000
pop of  0Cr 8pz       0.00000
pop of  0Cr 9px       0.00000
pop of  0Cr 9py       0.00000
pop of  0Cr 9pz       0.00000
pop of  0Cr 3dxy      0.99806
pop of  0Cr 3dyz      0.99806
pop of  0Cr 3dz^2     0.99806
pop of  0Cr 3dxz      0.99806
pop of  0Cr 3dx2-y2    0.99806
pop of  0Cr 4dxy      0.00152
pop of  0Cr 4dyz      0.00152
pop of  0Cr 4dz^2     0.00152
pop of  0Cr 4dxz      0.00152
pop of  0Cr 4dx2-y2    0.00152
pop of  0Cr 5dxy      0.00014
pop of  0Cr 5dyz      0.00014
pop of  0Cr 5dz^2     0.00014
pop of  0Cr 5dxz      0.00014
pop of  0Cr 5dx2-y2    0.00014
pop of  0Cr 6dxy      0.00001
pop of  0Cr 6dyz      0.00001
pop of  0Cr 6dz^2     0.00001
pop of  0Cr 6dxz      0.00001
pop of  0Cr 6dx2-y2    0.00001
pop of  0Cr 7dxy      0.00026
pop of  0Cr 7dyz      0.00026
pop of  0Cr 7dz^2     0.00026
pop of  0Cr 7dxz      0.00026
pop of  0Cr 7dx2-y2    0.00026
pop of  0Cr 8dxy      0.00002
pop of  0Cr 8dyz      0.00002
pop of  0Cr 8dz^2     0.00002
pop of  0Cr 8dxz      0.00002
pop of  0Cr 8dx2-y2    0.00002
pop of  0Cr 4fy^3     0.00000
pop of  0Cr 4fxyz     0.00000
pop of  0Cr 4fyz^2    0.00000
pop of  0Cr 4fz^3     0.00000
pop of  0Cr 4fxz^2    0.00000
pop of  0Cr 4fzx^2    0.00000
pop of  0Cr 4fx^3     0.00000
pop of  0Cr 5fy^3     0.00000
pop of  0Cr 5fxyz     0.00000
pop of  0Cr 5fyz^2    0.00000
pop of  0Cr 5fz^3     0.00000
pop of  0Cr 5fxz^2    0.00000
pop of  0Cr 5fzx^2    0.00000
pop of  0Cr 5fx^3     0.00000
pop of  0Cr 6fy^3     0.00000
pop of  0Cr 6fxyz     0.00000
pop of  0Cr 6fyz^2    0.00000
pop of  0Cr 6fz^3     0.00000
pop of  0Cr 6fxz^2    0.00000
pop of  0Cr 6fzx^2    0.00000
pop of  0Cr 6fx^3     0.00000
pop of  0Cr 7fy^3     0.00000
pop of  0Cr 7fxyz     0.00000
pop of  0Cr 7fyz^2    0.00000
pop of  0Cr 7fz^3     0.00000
pop of  0Cr 7fxz^2    0.00000
pop of  0Cr 7fzx^2    0.00000
pop of  0Cr 7fx^3     0.00000
pop of  0Cr 5g-4      0.00000
pop of  0Cr 5g-3      0.00000
pop of  0Cr 5g-2      0.00000
pop of  0Cr 5g-1      0.00000
pop of  0Cr 5g 0      0.00000
pop of  0Cr 5g 1      0.00000
pop of  0Cr 5g 2      0.00000
pop of  0Cr 5g 3      0.00000
pop of  0Cr 5g 4      0.00000
pop of  0Cr 6g-4      0.00000
pop of  0Cr 6g-3      0.00000
pop of  0Cr 6g-2      0.00000
pop of  0Cr 6g-1      0.00000
pop of  0Cr 6g 0      0.00000
pop of  0Cr 6g 1      0.00000
pop of  0Cr 6g 2      0.00000
pop of  0Cr 6g 3      0.00000
pop of  0Cr 6g 4      0.00000
pop of  0Cr 7g-4      0.00000
pop of  0Cr 7g-3      0.00000
pop of  0Cr 7g-2      0.00000
pop of  0Cr 7g-1      0.00000
pop of  0Cr 7g 0      0.00000
pop of  0Cr 7g 1      0.00000
pop of  0Cr 7g 2      0.00000
pop of  0Cr 7g 3      0.00000
pop of  0Cr 7g 4      0.00000
pop of  0Cr 6h-5      0.00000
pop of  0Cr 6h-4      0.00000
pop of  0Cr 6h-3      0.00000
pop of  0Cr 6h-2      0.00000
pop of  0Cr 6h-1      0.00000
pop of  0Cr 6h 0      0.00000
pop of  0Cr 6h 1      0.00000
pop of  0Cr 6h 2      0.00000
pop of  0Cr 6h 3      0.00000
pop of  0Cr 6h 4      0.00000
pop of  0Cr 6h 5      0.00000
pop of  0Cr 7h-5      0.00000
pop of  0Cr 7h-4      0.00000
pop of  0Cr 7h-3      0.00000
pop of  0Cr 7h-2      0.00000
pop of  0Cr 7h-1      0.00000
pop of  0Cr 7h 0      0.00000
pop of  0Cr 7h 1      0.00000
pop of  0Cr 7h 2      0.00000
pop of  0Cr 7h 3      0.00000
pop of  0Cr 7h 4      0.00000
pop of  0Cr 7h 5      0.00000
 ** Mulliken atomic charges  **
charge of  0Cr =     -0.00000

******** <class 'pyscf.mcscf.mc1step.CASSCF'> flags ********
CAS (6e+0e, 6o), ncore = 4, nvir = 125
max_cycle_macro = 50
max_cycle_micro = 4
conv_tol = 1e-07
conv_tol_grad = None
orbital rotation max_stepsize = 0.02
augmented hessian ah_max_cycle = 30
augmented hessian ah_conv_tol = 1e-12
augmented hessian ah_linear dependence = 1e-14
augmented hessian ah_level shift = 0
augmented hessian ah_start_tol = 2.5
augmented hessian ah_start_cycle = 3
augmented hessian ah_grad_trust_region = 3
kf_trust_region = 3
kf_interval = 4
ci_response_space = 4
ci_grad_trust_region = 3
with_dep4 0
natorb = False
canonicalization = True
sorting_mo_energy = False
chkfile = ./scratch/52141/tmp0oAW85
max_memory 4000 MB (current use 838 MB)
internal_rotation = False

******** SHCI flags ********
executable             = /home/bamu3429/softwares/dice/Dice
mpiprefix              = srun -n20
scratchDirectory       = ./scratch/52141
integralFile           = ./FCIDUMP
configFile             = ./input.dat
outputFile             = ./output.dat
maxIter                = 6
sweep_iter             = []
sweep_epsilon          = []
nPTiter                = 0
Stochastic             = True
fullrestart            = False
restart                = False
num_thrds              = 12
memory                 = None

CASCI E = -80.8025404391237  S^2 = 12.0000000
Set conv_tol_grad to 0.000316228
macro iter 1 (21 JK  4 micro), CASSCF E = -81.5368825404816  dE = -0.7343421  S^2 = 12.0000000
               |grad[o]|= 2.63  |grad[c]|= None  |ddm|=0.204
macro iter 2 (21 JK  4 micro), CASSCF E = -83.0452312174667  dE = -1.5083487  S^2 = 12.0000000
               |grad[o]|= 2.51  |grad[c]|= None  |ddm|=0.0185
macro iter 3 (21 JK  4 micro), CASSCF E = -83.5901813807717  dE = -0.54495016  S^2 = 12.0000000
               |grad[o]|=  2.5  |grad[c]|= None  |ddm|=0.00165
macro iter 4 (21 JK  4 micro), CASSCF E = -84.5619903636011  dE = -0.97180898  S^2 = 12.0000000
               |grad[o]|= 2.27  |grad[c]|= None  |ddm|=0.00135
macro iter 5 (21 JK  4 micro), CASSCF E = -85.2017442440958  dE = -0.63975388  S^2 = 12.0000000
               |grad[o]|= 1.76  |grad[c]|= None  |ddm|=0.00408
macro iter 6 (21 JK  4 micro), CASSCF E = -85.7037761033523  dE = -0.50203186  S^2 = 12.0000000
               |grad[o]|= 1.19  |grad[c]|= None  |ddm|=0.00681
macro iter 7 (21 JK  4 micro), CASSCF E = -85.9653410604107  dE = -0.26156496  S^2 = 12.0000000
               |grad[o]|=0.603  |grad[c]|= None  |ddm|=0.00692
macro iter 8 (21 JK  4 micro), CASSCF E = -86.0241840950389  dE = -0.058843035  S^2 = 12.0000000
               |grad[o]|=0.312  |grad[c]|= None  |ddm|=0.0224
macro iter 9 (21 JK  4 micro), CASSCF E = -86.0262855921499  dE = -0.0021014971  S^2 = 12.0000000
               |grad[o]|=0.0653  |grad[c]|= None  |ddm|=0.00365
macro iter 10 (17 JK  4 micro), CASSCF E = -86.0268801270349  dE = -0.00059453488  S^2 = 12.0000000
               |grad[o]|=0.0315  |grad[c]|= None  |ddm|=0.00275
macro iter 11 (17 JK  4 micro), CASSCF E = -86.0269146792694  dE = -3.4552235e-05  S^2 = 12.0000000
               |grad[o]|=0.0107  |grad[c]|= None  |ddm|=0.000321
macro iter 12 (17 JK  4 micro), CASSCF E = -86.0269315019334  dE = -1.6822664e-05  S^2 = 12.0000000
               |grad[o]|=0.00714  |grad[c]|= None  |ddm|=0.000923
macro iter 13 (7 JK  2 micro), CASSCF E = -86.0269458318375  dE = -1.4329904e-05  S^2 = 12.0000000
               |grad[o]|=0.00655  |grad[c]|= None  |ddm|=0.000765
macro iter 14 (7 JK  2 micro), CASSCF E = -86.0269524058577  dE = -6.5740202e-06  S^2 = 12.0000000
               |grad[o]|=0.0044  |grad[c]|= None  |ddm|=0.000366
macro iter 15 (7 JK  2 micro), CASSCF E = -86.0269568797033  dE = -4.4738456e-06  S^2 = 12.0000000
               |grad[o]|=0.00337  |grad[c]|= None  |ddm|=0.000304
macro iter 16 (7 JK  2 micro), CASSCF E = -86.0269609666754  dE = -4.0869721e-06  S^2 = 12.0000000
               |grad[o]|=0.00249  |grad[c]|= None  |ddm|=0.000382
macro iter 17 (7 JK  2 micro), CASSCF E = -86.0269627949861  dE = -1.8283107e-06  S^2 = 12.0000000
               |grad[o]|=0.00166  |grad[c]|= None  |ddm|=0.000172
macro iter 18 (7 JK  2 micro), CASSCF E = -86.026964582834  dE = -1.7878479e-06  S^2 = 12.0000000
               |grad[o]|=0.0013  |grad[c]|= None  |ddm|=0.000175
macro iter 19 (7 JK  2 micro), CASSCF E = -86.0269663071285  dE = -1.7242945e-06  S^2 = 12.0000000
               |grad[o]|=0.000959  |grad[c]|= None  |ddm|=0.000202
macro iter 20 (7 JK  2 micro), CASSCF E = -86.0269680047704  dE = -1.6976419e-06  S^2 = 12.0000000
               |grad[o]|=0.000686  |grad[c]|= None  |ddm|=0.00032
macro iter 21 (7 JK  2 micro), CASSCF E = -86.026980963572  dE = -1.2958802e-05  S^2 = 12.0000000
               |grad[o]|=0.000537  |grad[c]|= None  |ddm|=0.000988
macro iter 22 (21 JK  4 micro), CASSCF E = -86.0281129600836  dE = -0.0011319965  S^2 = 12.0000000
               |grad[o]|=0.00157  |grad[c]|= None  |ddm|=0.00404
macro iter 23 (21 JK  4 micro), CASSCF E = -86.0337356928657  dE = -0.0056227328  S^2 = 12.0000000
               |grad[o]|=0.00584  |grad[c]|= None  |ddm|=0.0307
macro iter 24 (21 JK  4 micro), CASSCF E = -86.0394301862235  dE = -0.0056944934  S^2 = 12.0000000
               |grad[o]|=0.0133  |grad[c]|= None  |ddm|=0.0453
macro iter 25 (17 JK  4 micro), CASSCF E = -86.0406966460179  dE = -0.0012664598  S^2 = 12.0000000
               |grad[o]|=0.00982  |grad[c]|= None  |ddm|=0.0208
macro iter 26 (21 JK  4 micro), CASSCF E = -86.0440727200686  dE = -0.0033760741  S^2 = 12.0000000
               |grad[o]|=0.0042  |grad[c]|= None  |ddm|=0.0267
macro iter 27 (21 JK  4 micro), CASSCF E = -86.0500471756355  dE = -0.0059744556  S^2 = 12.0000000
               |grad[o]|=0.0118  |grad[c]|= None  |ddm|=0.0397
macro iter 28 (17 JK  4 micro), CASSCF E = -86.0514118103078  dE = -0.0013646347  S^2 = 12.0000000
               |grad[o]|=0.0123  |grad[c]|= None  |ddm|=0.0117
macro iter 29 (12 JK  3 micro), CASSCF E = -86.0515315555328  dE = -0.00011974523  S^2 = 12.0000000
               |grad[o]|=0.00677  |grad[c]|= None  |ddm|=0.0034
macro iter 30 (7 JK  2 micro), CASSCF E = -86.0515551377909  dE = -2.3582258e-05  S^2 = 12.0000000
               |grad[o]|=0.00291  |grad[c]|= None  |ddm|=0.000729
macro iter 31 (7 JK  2 micro), CASSCF E = -86.051581322066  dE = -2.6184275e-05  S^2 = 12.0000000
               |grad[o]|=0.00202  |grad[c]|= None  |ddm|=0.000432
macro iter 32 (7 JK  2 micro), CASSCF E = -86.0515935598739  dE = -1.2237808e-05  S^2 = 12.0000000
               |grad[o]|=0.00183  |grad[c]|= None  |ddm|=0.000456
macro iter 33 (7 JK  2 micro), CASSCF E = -86.0516199510475  dE = -2.6391174e-05  S^2 = 12.0000000
               |grad[o]|=0.0016  |grad[c]|= None  |ddm|=0.000482
macro iter 34 (7 JK  2 micro), CASSCF E = -86.0516519644308  dE = -3.2013383e-05  S^2 = 12.0000000
               |grad[o]|=0.00142  |grad[c]|= None  |ddm|=0.000663
macro iter 35 (7 JK  2 micro), CASSCF E = -86.0516850583275  dE = -3.3093897e-05  S^2 = 12.0000000
               |grad[o]|=0.00134  |grad[c]|= None  |ddm|=0.00101
macro iter 36 (7 JK  2 micro), CASSCF E = -86.0517143701609  dE = -2.9311833e-05  S^2 = 12.0000000
               |grad[o]|=0.00107  |grad[c]|= None  |ddm|=0.00228
macro iter 37 (7 JK  2 micro), CASSCF E = -86.0517508860999  dE = -3.6515939e-05  S^2 = 12.0000000
               |grad[o]|=0.00198  |grad[c]|= None  |ddm|=0.00333
macro iter 38 (7 JK  2 micro), CASSCF E = -86.051812712596  dE = -6.1826496e-05  S^2 = 12.0000000
               |grad[o]|=0.00143  |grad[c]|= None  |ddm|=0.0053
macro iter 39 (7 JK  2 micro), CASSCF E = -86.0519703320576  dE = -0.00015761946  S^2 = 12.0000000
               |grad[o]|=0.00248  |grad[c]|= None  |ddm|=0.0101
macro iter 40 (7 JK  2 micro), CASSCF E = -86.0524213889254  dE = -0.00045105687  S^2 = 12.0000000
               |grad[o]|=0.00335  |grad[c]|= None  |ddm|=0.012
macro iter 41 (21 JK  4 micro), CASSCF E = -86.0544240888273  dE = -0.0020026999  S^2 = 12.0000000
               |grad[o]|=0.00459  |grad[c]|= None  |ddm|=0.0285
macro iter 42 (21 JK  4 micro), CASSCF E = -86.0551893194875  dE = -0.00076523066  S^2 = 12.0000000
               |grad[o]|=0.0137  |grad[c]|= None  |ddm|=0.00744
macro iter 43 (21 JK  4 micro), CASSCF E = -86.0562709143849  dE = -0.0010815949  S^2 = 12.0000000
               |grad[o]|=0.0149  |grad[c]|= None  |ddm|=0.0132
macro iter 44 (21 JK  4 micro), CASSCF E = -86.0563060958965  dE = -3.5181512e-05  S^2 = 12.0000000
               |grad[o]|=0.00575  |grad[c]|= None  |ddm|=0.00508
macro iter 45 (7 JK  2 micro), CASSCF E = -86.0564495367785  dE = -0.00014344088  S^2 = 12.0000000
               |grad[o]|=0.00539  |grad[c]|= None  |ddm|=0.00286
macro iter 46 (7 JK  2 micro), CASSCF E = -86.0566219628556  dE = -0.00017242608  S^2 = 12.0000000
               |grad[o]|=0.00436  |grad[c]|= None  |ddm|=0.00308
macro iter 47 (7 JK  2 micro), CASSCF E = -86.056859757755  dE = -0.0002377949  S^2 = 12.0000000
               |grad[o]|=0.00394  |grad[c]|= None  |ddm|=0.00611
macro iter 48 (7 JK  2 micro), CASSCF E = -86.0572954580545  dE = -0.0004357003  S^2 = 12.0000000
               |grad[o]|=0.00486  |grad[c]|= None  |ddm|=0.00896
macro iter 49 (17 JK  4 micro), CASSCF E = -86.059583841129  dE = -0.0022883831  S^2 = 12.0000000
               |grad[o]|=0.00577  |grad[c]|= None  |ddm|=0.0256
macro iter 50 (21 JK  4 micro), CASSCF E = -86.0611986445917  dE = -0.0016148035  S^2 = 12.0000000
               |grad[o]|=0.00993  |grad[c]|= None  |ddm|=0.0169
1-step CASSCF not converged, 50 macro (681 JK 151 micro) steps
CASSCF canonicalization
CASSCF energy = -86.0611986445917


--------------------------------------------------
                 ICMPSPT CALCULATION              
--------------------------------------------------

Perturbation type: MRLCC
With fully internally contracted scheme
With third order correction

Preparing necessary RDMs
......production of RDMs took       9.83 sec
Reading binary 4RDM from DICE
......reading the RDM took          0.98 sec

(GOOD) Trace 4RDM:    360.0 =    6*    5*    4*    3
(GOOD) Trace 3RDM:    120.0 =    6*    5*    4
(GOOD) Trace 2RDM:     30.0 =    6*    5
(GOOD) Trace 1RDM:      6.0 =    6

Producing the integrals
......production of INT took     247.91 sec

Energy_core =  -76.22658266
Energy      =  -86.06119864

WARNING: Have to use natural orbitals from CAASCF
         offdiagonal elements:    1.05244421

Basic ingredients written to int/
......savings of INGREDIENTS took      68.12 sec

Second-order:
perturber CCVV --        -0.209553650
perturber CCAV --        -0.009613014
perturber ACVV --        -0.216392393
perturber CCAA --        -0.000515502
