 &FCI NORB=6 ,NELEC=6 ,MS2=6,
  ORBSYM=1,1,1,1,1,1,
  ISYM=1,
 &END
  1.084910156361e+00    1  1  1  1
 -3.584917476366e-02    2  1  1  1
  7.818211719051e-02    2  1  2  1
  7.777839710963e-01    2  2  1  1
 -9.800205970278e-02    2  2  2  1
  7.871056830339e-01    2  2  2  2
  2.542689269345e-01    3  1  1  1
 -2.168248730704e-02    3  1  2  1
  1.224421173243e-01    3  1  2  2
  1.663567256619e-01    3  1  3  1
 -3.189241838852e-02    3  2  1  1
  2.181726045477e-02    3  2  2  1
 -4.632475188528e-02    3  2  2  2
 -1.248845464719e-02    3  2  3  1
  2.619706459428e-02    3  2  3  2
  8.615558604385e-01    3  3  1  1
 -2.444724814347e-02    3  3  2  1
  6.519638631925e-01    3  3  2  2
  1.798587475309e-01    3  3  3  1
 -2.137944859853e-02    3  3  3  2
  7.508963196464e-01    3  3  3  3
  5.050204802614e-02    4  1  1  1
 -2.353262331728e-02    4  1  2  1
  3.432768558862e-02    4  1  2  2
  5.641706215775e-02    4  1  3  1
 -8.612270332816e-03    4  1  3  2
  4.350202468507e-02    4  1  3  3
  7.705216833308e-02    4  1  4  1
 -6.645778028440e-02    4  2  1  1
  1.262004194880e-02    4  2  2  1
 -4.231710137917e-02    4  2  2  2
 -2.696372423889e-02    4  2  3  1
  8.342744894090e-03    4  2  3  2
 -4.649446903950e-02    4  2  3  3
 -2.270559801455e-02    4  2  4  1
  2.918914133713e-02    4  2  4  2
  1.573860605474e-01    4  3  1  1
 -2.338432489247e-02    4  3  2  1
  1.144148824118e-01    4  3  2  2
  7.314913144818e-02    4  3  3  1
 -1.296624475238e-02    4  3  3  2
  1.191723286174e-01    4  3  3  3
  5.264706887976e-02    4  3  4  1
 -2.173887889245e-02    4  3  4  2
  7.458905212481e-02    4  3  4  3
  7.704394947766e-01    4  4  1  1
 -4.001820808432e-02    4  4  2  1
  6.294465381187e-01    4  4  2  2
  1.668643302908e-01    4  4  3  1
 -2.664632163997e-02    4  4  3  2
  6.430363112545e-01    4  4  3  3
  9.936684249228e-02    4  4  4  1
 -5.921652477898e-02    4  4  4  2
  1.350623952139e-01    4  4  4  3
  7.641280913535e-01    4  4  4  4
 -3.035096322580e-03    5  1  1  1
 -7.576636481258e-02    5  1  2  1
  1.084914302688e-01    5  1  2  2
 -7.258024380648e-03    5  1  3  1
 -2.480219788905e-02    5  1  3  2
 -1.131285276565e-02    5  1  3  3
  3.437313925792e-02    5  1  4  1
 -1.083635501164e-02    5  1  4  2
  3.077695768090e-02    5  1  4  3
  6.164142689745e-02    5  1  4  4
  1.239075009776e-01    5  1  5  1
 -2.343393384678e-01    5  2  1  1
  6.393237134410e-02    5  2  2  1
 -1.933709353684e-01    5  2  2  2
 -8.309111126216e-02    5  2  3  1
  6.440870323241e-03    5  2  3  2
 -1.577796496571e-01    5  2  3  3
 -2.734331174135e-02    5  2  4  1
  3.184405968182e-02    5  2  4  2
 -5.905214111417e-02    5  2  4  3
 -1.536082273650e-01    5  2  4  4
 -4.882007758137e-02    5  2  5  1
  1.601633953271e-01    5  2  5  2
 -8.204685656856e-02    5  3  1  1
  9.795401053007e-03    5  3  2  1
 -1.020722105750e-01    5  3  2  2
 -2.469780143056e-02    5  3  3  1
  4.356438241290e-03    5  3  3  2
 -5.546963788863e-02    5  3  3  3
  1.205670366183e-02    5  3  4  1
 -5.452870916451e-03    5  3  4  2
 -2.036475846102e-02    5  3  4  3
 -4.446472976199e-02    5  3  4  4
 -3.081285687105e-02    5  3  5  1
  3.459571592889e-02    5  3  5  2
  6.836769084393e-02    5  3  5  3
  6.997212661273e-02    5  4  1  1
 -7.227564718474e-03    5  4  2  1
  3.382277876418e-02    5  4  2  2
  4.009599634094e-02    5  4  3  1
 -7.058203792881e-03    5  4  3  2
  4.162549161581e-02    5  4  3  3
  3.232042804011e-02    5  4  4  1
 -2.257425523029e-02    5  4  4  2
  2.672409280404e-02    5  4  4  3
  6.625621315761e-02    5  4  4  4
  6.572612155501e-04    5  4  5  1
 -2.716517643517e-02    5  4  5  2
  1.020085355307e-02    5  4  5  3
  3.626294405684e-02    5  4  5  4
  8.843224515839e-01    5  5  1  1
 -8.147545539499e-02    5  5  2  1
  8.269380988658e-01    5  5  2  2
  1.224256541638e-01    5  5  3  1
 -3.183483465651e-02    5  5  3  2
  7.324253749359e-01    5  5  3  3
  2.384041927326e-02    5  5  4  1
 -4.981510069163e-02    5  5  4  2
  1.249854861357e-01    5  5  4  3
  6.948322041553e-01    5  5  4  4
  1.021576000695e-01    5  5  5  1
 -2.216486794860e-01    5  5  5  2
 -1.274331667136e-01    5  5  5  3
  3.081474028407e-02    5  5  5  4
  9.522420725643e-01    5  5  5  5
 -1.205775934321e-01    6  1  1  1
  2.312887821873e-02    6  1  2  1
 -8.774109859931e-02    6  1  2  2
 -4.092324324812e-02    6  1  3  1
  1.200808234767e-02    6  1  3  2
 -9.247467041821e-02    6  1  3  3
  4.867742167819e-02    6  1  4  1
 -5.293245643357e-03    6  1  4  2
  6.246726682407e-03    6  1  4  3
  2.711417774341e-02    6  1  4  4
  2.122194763310e-02    6  1  5  1
  5.034020391818e-02    6  1  5  2
  3.674453081019e-02    6  1  5  3
  1.372290159431e-02    6  1  5  4
 -9.370055544248e-02    6  1  5  5
  1.325568737706e-01    6  1  6  1
  1.002238196839e-01    6  2  1  1
 -3.290147410247e-02    6  2  2  1
  8.729458697247e-02    6  2  2  2
  3.687635011805e-02    6  2  3  1
 -6.860053803045e-03    6  2  3  2
  6.858610949957e-02    6  2  3  3
  9.701610724672e-03    6  2  4  1
 -4.568702298908e-03    6  2  4  2
  2.662989083596e-02    6  2  4  3
  7.740314952617e-02    6  2  4  4
  3.254709024988e-02    6  2  5  1
 -6.369413637916e-02    6  2  5  2
 -1.478105873341e-02    6  2  5  3
 -1.773938888778e-04    6  2  5  4
  9.288869188300e-02    6  2  5  5
 -1.446805577642e-02    6  2  6  1
  4.916258271655e-02    6  2  6  2
 -4.961062253888e-02    6  3  1  1
 -1.971669327968e-03    6  3  2  1
  2.626741962821e-03    6  3  2  2
 -3.405321175739e-02    6  3  3  1
  1.216656539264e-03    6  3  3  2
 -3.994284556653e-02    6  3  3  3
  2.232532887533e-02    6  3  4  1
  2.291366043893e-03    6  3  4  2
  9.923617573460e-03    6  3  4  3
  3.223351081230e-02    6  3  4  4
  3.985639634022e-02    6  3  5  1
  1.231281685382e-02    6  3  5  2
 -2.658980947989e-03    6  3  5  3
 -1.029425247217e-03    6  3  5  4
  9.329329443715e-03    6  3  5  5
  5.631985221256e-02    6  3  6  1
 -1.932749210809e-03    6  3  6  2
  4.899254615314e-02    6  3  6  3
  1.876492844337e-01    6  4  1  1
 -2.417234284510e-02    6  4  2  1
  1.329034345264e-01    6  4  2  2
  7.185432721554e-02    6  4  3  1
 -7.848106267533e-03    6  4  3  2
  1.352932103601e-01    6  4  3  3
  4.220521665837e-02    6  4  4  1
 -2.001684362028e-02    6  4  4  2
  6.755744279176e-02    6  4  4  3
  1.362287626762e-01    6  4  4  4
  2.623290677763e-02    6  4  5  1
 -7.556386731343e-02    6  4  5  2
 -2.451955436986e-02    6  4  5  3
  3.640996709286e-02    6  4  5  4
  1.571389327355e-01    6  4  5  5
 -1.507872248718e-02    6  4  6  1
  2.985410180845e-02    6  4  6  2
  4.332973993564e-03    6  4  6  3
  1.171564125648e-01    6  4  6  4
  4.940061154306e-02    6  5  1  1
  3.186427699700e-02    6  5  2  1
 -3.300598493105e-02    6  5  2  2
  4.082123215409e-02    6  5  3  1
  6.918243760581e-03    6  5  3  2
  2.512653276888e-02    6  5  3  3
  2.834668805260e-02    6  5  4  1
 -1.872100049580e-02    6  5  4  2
  1.243817784819e-02    6  5  4  3
  7.197899100129e-02    6  5  4  4
 -3.197682710599e-02    6  5  5  1
  6.201453284297e-03    6  5  5  2
  1.980370520172e-02    6  5  5  3
  3.015782672082e-02    6  5  5  4
 -2.214010021346e-02    6  5  5  5
  4.172347375306e-02    6  5  6  1
 -7.260407326211e-03    6  5  6  2
 -2.808306444721e-04    6  5  6  3
  1.684081789889e-02    6  5  6  4
  6.974706416731e-02    6  5  6  5
  9.225463735704e-01    6  6  1  1
 -3.788013963740e-02    6  6  2  1
  7.332193654036e-01    6  6  2  2
  1.980216923084e-01    6  6  3  1
 -2.640682694620e-02    6  6  3  2
  7.407990571306e-01    6  6  3  3
  8.019938001191e-02    6  6  4  1
 -5.499089337824e-02    6  6  4  2
  1.470992303152e-01    6  6  4  3
  8.350327049416e-01    6  6  4  4
  6.617231144440e-02    6  6  5  1
 -1.894608339183e-01    6  6  5  2
 -7.522516222298e-02    6  6  5  3
  6.708084030726e-02    6  6  5  4
  8.301443657854e-01    6  6  5  5
  9.925592544993e-03    6  6  6  1
  1.148201889164e-01    6  6  6  2
  2.477364129866e-02    6  6  6  3
  1.780031680238e-01    6  6  6  4
  8.546164346086e-02    6  6  6  5
  1.028290220680e+00    6  6  6  6
 -6.526679089223e+00    1  1  0  0
  2.381756185229e-01    2  1  0  0
 -2.914451936628e+00    2  2  0  0
 -9.083056244605e-01    3  1  0  0
  3.098415890600e-01    3  2  0  0
 -3.233842247716e+00    3  3  0  0
 -2.415466370307e-01    4  1  0  0
  3.524107166761e-01    4  2  0  0
 -7.439759078271e-01    4  3  0  0
 -2.828785095152e+00    4  4  0  0
 -8.597731228454e-01    5  1  0  0
  9.263161459293e-01    5  2  0  0
  4.086537211902e-01    5  3  0  0
 -2.446718301121e-01    5  4  0  0
 -5.180962794809e+00    5  5  0  0
  9.640937688313e-02    6  1  0  0
 -4.250145003789e-01    6  2  0  0
 -5.862805186309e-01    6  3  0  0
 -6.713375494268e-01    6  4  0  0
 -2.011243485025e-01    6  5  0  0
 -4.910604980023e+00    6  6  0  0
    -65.175740808548   0  0  0  0
