 &FCI NORB=6 ,NELEC=7 ,MS2=5,
  ORBSYM=1,1,1,1,1,1,
  ISYM=1,
 &END
  8.979127454498e-01    1  1  1  1
  4.039062649256e-02    2  1  2  1
  8.330275297602e-01    2  2  1  1
  9.351073084762e-01    2  2  2  2
  3.552435215292e-02    3  1  3  1
 -9.434503353566e-03    3  2  3  1
  2.591953695308e-02    3  2  3  2
  8.433040625612e-01    3  3  1  1
  1.817896703936e-02    3  3  2  1
  8.821558065290e-01    3  3  2  2
  9.321990405280e-01    3  3  3  3
  1.183810582518e-03    4  1  3  2
  3.552435215292e-02    4  1  4  1
  1.183810582518e-03    4  2  3  1
  9.434503353566e-03    4  2  4  1
  2.591953695308e-02    4  2  4  2
 -2.281037247425e-03    4  3  2  1
  4.152584936985e-05    4  3  3  3
  3.665338220639e-02    4  3  4  3
  8.433040625612e-01    4  4  1  1
 -1.817896703936e-02    4  4  2  1
  8.821558065290e-01    4  4  2  2
  8.595437443368e-01    4  4  3  3
 -4.152584937161e-05    4  4  4  3
  9.321990405280e-01    4  4  4  4
  1.950806228469e-02    5  1  5  1
 -2.331324719851e-03    5  2  3  3
 -1.857973835722e-02    5  2  4  3
  2.331324719851e-03    5  2  4  4
  4.157934501019e-02    5  2  5  2
  1.194265871286e-03    5  3  3  2
  1.615443852530e-02    5  3  4  1
  9.517827880655e-03    5  3  4  2
  3.645512881563e-02    5  3  5  3
 -1.615443852530e-02    5  4  3  1
  9.517827880655e-03    5  4  3  2
 -1.194265871286e-03    5  4  4  2
  3.645512881563e-02    5  4  5  4
  8.722021047619e-01    5  5  1  1
  8.454402027970e-01    5  5  2  2
  8.558211559008e-01    5  5  3  3
  8.558211559008e-01    5  5  4  4
  9.249576413722e-01    5  5  5  5
 -2.241032924198e-03    6  1  2  1
 -1.492812767097e-03    6  1  3  3
  1.873132570077e-04    6  1  4  3
  1.492812767097e-03    6  1  4  4
  1.004773002326e-02    6  1  6  1
 -1.177573838553e-02    6  2  1  1
 -1.179449164187e-02    6  2  2  2
 -1.125403934926e-02    6  2  3  3
 -1.125403934926e-02    6  2  4  4
 -1.165505579363e-02    6  2  5  5
  9.706398675566e-03    6  2  6  2
 -6.471973696884e-04    6  3  3  1
 -5.150256296944e-05    6  3  3  2
  8.120820635727e-05    6  3  4  1
  6.178728258407e-05    6  3  5  3
  4.924202683737e-04    6  3  5  4
  9.399009935208e-03    6  3  6  3
  8.120820635723e-05    6  4  3  1
  6.471973696883e-04    6  4  4  1
 -5.150256296946e-05    6  4  4  2
  4.924202683736e-04    6  4  5  3
 -6.178728258401e-05    6  4  5  4
  9.399009935208e-03    6  4  6  4
  1.451855976281e-04    6  5  3  3
  1.157071940343e-03    6  5  4  3
 -1.451855976281e-04    6  5  4  4
 -1.675638787415e-03    6  5  5  2
  9.315668324895e-03    6  5  6  5
  4.048770436501e-01    6  6  1  1
  4.078141063060e-01    6  6  2  2
  4.074617740217e-01    6  6  3  3
  4.074617740217e-01    6  6  4  4
  4.063650579871e-01    6  6  5  5
 -1.751402132209e-03    6  6  6  2
  3.223061064887e-01    6  6  6  6
 -5.474461647566e+00    1  1  0  0
 -5.552533571908e+00    2  2  0  0
 -5.548968639776e+00    3  3  0  0
 -5.548968639776e+00    4  4  0  0
 -5.533540115358e+00    5  5  0  0
  6.135721885182e-02    6  2  0  0
 -2.958971608421e+00    6  6  0  0
   -101.635719296819   0  0  0  0
