#INFO: **** input file is /projects/bamu3429/BENCHMARK/fresh_atoms/MRPT/vtz/atoms/Fe_1/mrpt.py ****
import json
from pyscf import gto,scf,mcscf, fci, lo, ci, cc
from pyscf.scf import ROHF, UHF,ROKS
import numpy as np
import pandas as pd

# THIS IS WERE IT STARTS ====================================

df=json.load(open("../../../trail.json"))

spins={'Sc':1, 'Ti':2, 'V':3, 'Cr':6, 'Mn':5, 'Fe':4, 'Cu':1}

nd={'Sc':(1,0), 'Ti':(2,0), 'V':(3,0), 'Cr':(5,0), 'Mn':(5,0), 'Fe':(5,1), 'Cu':(5,5)}

cas={'Sc':3, 'Ti':4, 'V':5, 'Cr':6, 'Mn':7, 'Fe':8, 'Cu':11}

datacsv={}
for nm in ['atom','charge','method','basis','pseudopotential','hf',
           'totalenergy','totalenergy-stocherr','totalenergy-syserr']:
  datacsv[nm]=[]

basis='vtz'
el='Fe'
charge=1

mol=gto.Mole()
mol.ecp={}
mol.basis={}
mol.ecp[el]=gto.basis.parse_ecp(df[el]['ecp'])
mol.basis[el]=gto.basis.parse(df[el][basis])
mol.charge=charge
if el == 'Cr' or el == 'Cu':
  mol.spin=spins[el]-charge
else:
  mol.spin=spins[el]+charge
mol.build(atom="%s 0. 0. 0."%el,verbose=4)

m=ROHF(mol)
m.level_shift=1000.0
dm=m.from_chk("../../../../HF/atoms/"+el+basis+str(charge)+".chk")
hf=m.kernel(dm)
m.analyze()

from pyscf.shciscf import shci
mc = shci.SHCISCF(m, 6, cas[el]-charge)
#mc.fcisolver.conv_tol = 1e-14
mc.fcisolver.mpiprefix="mpirun -np 28"
mc.fcisolver.num_thrds=12
mc.verbose = 4
cas=mc.kernel()[0]
 
from pyscf.icmpspt import icmpspt
pt=icmpspt.icmpspt(mc,rdmM=500, PTM=1000,\
                          pttype="MRLCC",\
                          third_order=True,\
                          fully_ic=True,\
                          do_dm4=True)

datacsv['atom'].append(el)
datacsv['charge'].append(charge)
datacsv['method'].append('MRPT')
datacsv['basis'].append(basis)
datacsv['pseudopotential'].append('trail')
datacsv['hf'].append(hf)
datacsv['totalenergy'].append(cas+pt)
datacsv['totalenergy-stocherr'].append(0.0)
datacsv['totalenergy-syserr'].append(0.0)
pd.DataFrame(datacsv).to_csv(el+".csv",index=False)

#INFO: ******************** input file end ********************


System: ('Linux', 'bnode0304.rc.int.colorado.edu', '3.10.0-514.41.1.el7.x86_64', '#1 SMP Wed Jan 17 10:26:16 EST 2018', 'x86_64', 'x86_64')  Threads 28
Python 2.7.11 (default, Mar 22 2016, 01:42:54) 
[GCC Intel(R) C++ gcc 4.8 mode]
numpy 1.11.1  scipy 0.17.1
Date: Thu Mar 29 15:12:21 2018
PySCF version 1.4
PySCF path  /projects/bamu3429/softwares/pyscf_uptodate/pyscf
GIT ORIG_HEAD e2292e6edec2b0e0024c21b81de03db1d7bd4121
GIT HEAD      ref: refs/heads/master
GIT master branch  f3591ef22170896a4cdc2aadaa6f5da388ffcadb

[INPUT] VERBOSE 4
[INPUT] num atoms = 1
[INPUT] num electrons = 15
[INPUT] charge = 1
[INPUT] spin (= nelec alpha-beta = 2S) = 5
[INPUT] symmetry False subgroup None
[INPUT]  1 Fe     0.000000000000   0.000000000000   0.000000000000 AA    0.000000000000   0.000000000000   0.000000000000 Bohr
[INPUT] ---------------- BASIS SET ---------------- 
[INPUT] l, kappa, [nprim/nctr], expnt,             c_1 c_2 ...
[INPUT] Fe
[INPUT] 0    0    [12   /1   ]  41.79315189       0.013363
                                21.4479766        -0.225831
                                13.50597996       1.092302
                                9.47978339        -1.379238
                                4.48116767        0.183004
                                2.00533715        0.377557
                                1.21557711        0.591529
                                0.52042955        0.236703
                                0.24120153        -0.029854
                                0.11142434        0.02048
                                0.05213724        -0.006828
                                0.02419858        0.002604
[INPUT] 0    0    [12   /1   ]  41.79315189       -0.002034
                                21.4479766        0.04181
                                13.50597996       -0.22265
                                9.47978339        0.296462
                                4.48116767        -0.039261
                                2.00533715        -0.090727
                                1.21557711        -0.230375
                                0.52042955        -0.197211
                                0.24120153        0.111234
                                0.11142434        0.439139
                                0.05213724        0.516418
                                0.02419858        0.126845
[INPUT] 0    0    [12   /1   ]  41.79315189       -0.004624
                                21.4479766        0.139122
                                13.50597996       -0.88629
                                9.47978339        1.342491
                                4.48116767        -0.386645
                                2.00533715        -1.289136
                                1.21557711        0.203208
                                0.52042955        0.587093
                                0.24120153        0.75499
                                0.11142434        0.148125
                                0.05213724        -0.57141
                                0.02419858        -0.318371
[INPUT] 0    0    [12   /1   ]  41.79315189       -0.003085
                                21.4479766        0.157954
                                13.50597996       -1.176019
                                9.47978339        1.974187
                                4.48116767        -0.963904
                                2.00533715        -2.385892
                                1.21557711        2.080105
                                0.52042955        1.415026
                                0.24120153        -1.191846
                                0.11142434        -1.007091
                                0.05213724        0.554221
                                0.02419858        0.59334
[INPUT] 0    0    [1    /1   ]  0.02419858           1
[INPUT] 0    0    [1    /1   ]  0.01123134           1
[INPUT] 1    0    [12   /1   ]  66.19105244       0.00032
                                34.58074578       -0.003142
                                17.77781378       0.029707
                                9.38371315        -0.152873
                                5.85185491        0.094627
                                3.39352009        0.227547
                                1.80084269        0.448024
                                0.88349057        0.318306
                                0.45376195        0.097682
                                0.18864625        0.012314
                                0.07756623        -0.001004
                                0.03189313        0.000474
[INPUT] 1    0    [12   /1   ]  66.19105244       -1.8e-05
                                34.58074578       0.000416
                                17.77781378       -0.005911
                                9.38371315        0.03555
                                5.85185491        -0.025962
                                3.39352009        -0.059781
                                1.80084269        -0.122371
                                0.88349057        -0.102075
                                0.45376195        0.039881
                                0.18864625        0.346137
                                0.07756623        0.528115
                                0.03189313        0.237416
[INPUT] 1    0    [12   /1   ]  66.19105244       -0.000861
                                34.58074578       0.002748
                                17.77781378       0.01593
                                9.38371315        -0.209763
                                5.85185491        0.179034
                                3.39352009        0.814145
                                1.80084269        0.03855
                                0.88349057        -0.875838
                                0.45376195        -0.34746
                                0.18864625        0.631788
                                0.07756623        0.399045
                                0.03189313        0.003561
[INPUT] 1    0    [12   /1   ]  66.19105244       -0.001607
                                34.58074578       0.006226
                                17.77781378       0.025483
                                9.38371315        -0.54041
                                5.85185491        1.16772
                                3.39352009        0.772818
                                1.80084269        -1.572667
                                0.88349057        -0.61263
                                0.45376195        1.561245
                                0.18864625        -0.107594
                                0.07756623        -0.646326
                                0.03189313        0.002096
[INPUT] 1    0    [1    /1   ]  0.03189313           1
[INPUT] 1    0    [1    /1   ]  0.01311358           1
[INPUT] 2    0    [10   /1   ]  58.21685909       0.000311
                                24.96806153       -0.010386
                                12.44413704       0.126915
                                5.48395408        0.166806
                                2.79137309        0.262721
                                1.34407118        0.316542
                                0.61230651        0.280074
                                0.27095461        0.158069
                                0.12811374        0.049028
                                0.05904405        0.008369
[INPUT] 2    0    [10   /1   ]  58.21685909       0.000374
                                24.96806153       0.007401
                                12.44413704       -0.12958
                                5.48395408        -0.233171
                                2.79137309        -0.387571
                                1.34407118        -0.056586
                                0.61230651        0.33938
                                0.27095461        0.403227
                                0.12811374        0.20401
                                0.05904405        0.046291
[INPUT] 2    0    [10   /1   ]  58.21685909       -0.001716
                                24.96806153       -0.000551
                                12.44413704       0.130748
                                5.48395408        0.429828
                                2.79137309        0.259447
                                1.34407118        -0.684658
                                0.61230651        -0.396877
                                0.27095461        0.349872
                                0.12811374        0.4289
                                0.05904405        0.113763
[INPUT] 2    0    [1    /1   ]  0.05904405           1
[INPUT] 2    0    [1    /1   ]  0.02721175           1
[INPUT] 3    0    [1    /1   ]  3.759443             1
[INPUT] 3    0    [1    /1   ]  1.028316             1
[INPUT] 3    0    [1    /1   ]  0.28127405           1
[INPUT] 4    0    [1    /1   ]  3.347806             1
[INPUT] 4    0    [1    /1   ]  0.91572139           1
nuclear repulsion = 0
number of shells = 22
number of NR pGTOs = 399
number of NR cGTOs = 88
basis = {'Fe': [[0, [41.79315189, 0.013363], [21.4479766, -0.225831], [13.50597996, 1.092302], [9.47978339, -1.379238], [4.48116767, 0.183004], [2.00533715, 0.377557], [1.21557711, 0.591529], [0.52042955, 0.236703], [0.24120153, -0.029854], [0.11142434, 0.02048], [0.05213724, -0.006828], [0.02419858, 0.002604]], [0, [41.79315189, -0.002034], [21.4479766, 0.04181], [13.50597996, -0.22265], [9.47978339, 0.296462], [4.48116767, -0.039261], [2.00533715, -0.090727], [1.21557711, -0.230375], [0.52042955, -0.197211], [0.24120153, 0.111234], [0.11142434, 0.439139], [0.05213724, 0.516418], [0.02419858, 0.126845]], [0, [41.79315189, -0.004624], [21.4479766, 0.139122], [13.50597996, -0.88629], [9.47978339, 1.342491], [4.48116767, -0.386645], [2.00533715, -1.289136], [1.21557711, 0.203208], [0.52042955, 0.587093], [0.24120153, 0.75499], [0.11142434, 0.148125], [0.05213724, -0.57141], [0.02419858, -0.318371]], [0, [41.79315189, -0.003085], [21.4479766, 0.157954], [13.50597996, -1.176019], [9.47978339, 1.974187], [4.48116767, -0.963904], [2.00533715, -2.385892], [1.21557711, 2.080105], [0.52042955, 1.415026], [0.24120153, -1.191846], [0.11142434, -1.007091], [0.05213724, 0.554221], [0.02419858, 0.59334]], [0, [0.02419858, 1.0]], [0, [0.01123134, 1.0]], [1, [66.19105244, 0.00032], [34.58074578, -0.003142], [17.77781378, 0.029707], [9.38371315, -0.152873], [5.85185491, 0.094627], [3.39352009, 0.227547], [1.80084269, 0.448024], [0.88349057, 0.318306], [0.45376195, 0.097682], [0.18864625, 0.012314], [0.07756623, -0.001004], [0.03189313, 0.000474]], [1, [66.19105244, -1.8e-05], [34.58074578, 0.000416], [17.77781378, -0.005911], [9.38371315, 0.03555], [5.85185491, -0.025962], [3.39352009, -0.059781], [1.80084269, -0.122371], [0.88349057, -0.102075], [0.45376195, 0.039881], [0.18864625, 0.346137], [0.07756623, 0.528115], [0.03189313, 0.237416]], [1, [66.19105244, -0.000861], [34.58074578, 0.002748], [17.77781378, 0.01593], [9.38371315, -0.209763], [5.85185491, 0.179034], [3.39352009, 0.814145], [1.80084269, 0.03855], [0.88349057, -0.875838], [0.45376195, -0.34746], [0.18864625, 0.631788], [0.07756623, 0.399045], [0.03189313, 0.003561]], [1, [66.19105244, -0.001607], [34.58074578, 0.006226], [17.77781378, 0.025483], [9.38371315, -0.54041], [5.85185491, 1.16772], [3.39352009, 0.772818], [1.80084269, -1.572667], [0.88349057, -0.61263], [0.45376195, 1.561245], [0.18864625, -0.107594], [0.07756623, -0.646326], [0.03189313, 0.002096]], [1, [0.03189313, 1.0]], [1, [0.01311358, 1.0]], [2, [58.21685909, 0.000311], [24.96806153, -0.010386], [12.44413704, 0.126915], [5.48395408, 0.166806], [2.79137309, 0.262721], [1.34407118, 0.316542], [0.61230651, 0.280074], [0.27095461, 0.158069], [0.12811374, 0.049028], [0.05904405, 0.008369]], [2, [58.21685909, 0.000374], [24.96806153, 0.007401], [12.44413704, -0.12958], [5.48395408, -0.233171], [2.79137309, -0.387571], [1.34407118, -0.056586], [0.61230651, 0.33938], [0.27095461, 0.403227], [0.12811374, 0.20401], [0.05904405, 0.046291]], [2, [58.21685909, -0.001716], [24.96806153, -0.000551], [12.44413704, 0.130748], [5.48395408, 0.429828], [2.79137309, 0.259447], [1.34407118, -0.684658], [0.61230651, -0.396877], [0.27095461, 0.349872], [0.12811374, 0.4289], [0.05904405, 0.113763]], [2, [0.05904405, 1.0]], [2, [0.02721175, 1.0]], [3, [3.759443, 1.0]], [3, [1.028316, 1.0]], [3, [0.28127405, 1.0]], [4, [3.347806, 1.0]], [4, [0.91572139, 1.0]]]}
ecp = {'Fe': [10, [[-1, [[], [[16.90683491, 16.0]], [[18.40258134, 26847.81569895], [6.30300831, -133.54888707], [18.42848726, -26765.4049232], [18.43432023, 1.00742417]], [[7.01300654, 270.50935856]]]], [0, [[], [], [[9.62463353, 20308.8999348], [9.1270955, -17595.21707731], [7.5416384, 1884.69012383], [12.70900949, -4483.50209856], [8.14863339, -1094.38597968], [16.27611739, 1032.95376659]], []]], [1, [[], [], [[11.36514719, -905.00711112], [14.56762424, 34640.9358259], [15.05861359, -42299.94223895], [17.41337089, 10633.68808757], [18.3746752, -5844.19723669], [17.04734437, 3803.80414779]], []]], [2, [[], [], [[10.13935738, -11031.18647055], [13.45796076, 16711.37502047], [10.97387824, 37989.95033676], [11.92919033, -41782.92514683], [17.7123012, 3812.58339812], [17.32108913, -5718.00854971]], []]]]]}
CPU time:         3.58


******** <class 'pyscf.scf.rohf.ROHF'> flags ********
method = ROHF
initial guess = minao
damping factor = 0
level shift factor = 1000.0
DIIS = <class 'pyscf.scf.diis.CDIIS'>
DIIS start cycle = 1
DIIS space = 8
SCF tol = 1e-09
SCF gradient tol = None
max. SCF cycles = 50
direct_scf = True
direct_scf_tol = 1e-13
chkfile to save SCF result = /projects/bamu3429/BENCHMARK/fresh_atoms/MRPT/vtz/atoms/Fe_1/tmpnMqq9g
max_memory 4000 MB (current use 101 MB)
num. doubly occ = 5  num. singly occ = 5
Set gradient conv threshold to 3.16228e-05
init E= -122.808039499521
  HOMO = 499.612080608187  LUMO = 999.851411261388
cycle= 1 E= -122.808039499521  delta_E= -5.54e-13  |g|= 1.37e-05  |ddm|= 4.47e-08
  HOMO = -0.387919392262951  LUMO = -0.148588738896237
Extra cycle  E= -122.808039499553  delta_E= -3.2e-11  |g|= 3.19e-06  |ddm|= 1.37e-05
converged SCF energy = -122.808039499553
**** MO energy ****
                Roothaan           | alpha              | beta
MO #1   energy= -4.71934985470961  | -4.9131970912943   | -4.52550262001827  occ= 2
MO #2   energy= -3.1032981626033   | -3.38133861575402  | -2.82525770945255  occ= 2
MO #3   energy= -3.09632074811158  | -3.30283337609052  | -2.88980812013263  occ= 2
MO #4   energy= -3.09632074811157  | -3.30283337609051  | -2.88980812013262  occ= 2
MO #5   energy= -0.8503305943559   | -0.920828185958546 | -0.779833002753256 occ= 2
MO #6   energy= -0.493311274021518 | -1.01242693457855  | 0.0258048813531902 occ= 1
MO #7   energy= -0.48101562593151  | -1.00132905883993  | 0.0392974429659751 occ= 1
MO #8   energy= -0.481015625931509 | -1.00132905883993  | 0.0392974429659766 occ= 1
MO #9   energy= -0.444619414021833 | -0.969001962207041 | 0.0797619720424719 occ= 1
MO #10  energy= -0.387919392262951 | -0.567982635301991 | -0.207856355280696 occ= 1
MO #11  energy= -0.148588738896237 | -0.177985207320414 | -0.119192270472064 occ= 0
MO #12  energy= -0.143588501146053 | -0.169060367101634 | -0.118116635190474 occ= 0
MO #13  energy= -0.143588501146051 | -0.169060367101633 | -0.118116635190474 occ= 0
MO #14  energy= -0.0846836945005014 | -0.0871643852915661 | -0.0822029078793246 occ= 0
MO #15  energy= -0.0558039030282647 | -0.0611147241373548 | -0.0504930819191763 occ= 0
MO #16  energy= -0.0546644178251727 | -0.0595843778895446 | -0.0497444577607967 occ= 0
MO #17  energy= -0.05466441782517  | -0.0595843778895446 | -0.0497444577607972 occ= 0
MO #18  energy= -0.0460401003542964 | -0.0478401273520344 | -0.0442401110462957 occ= 0
MO #19  energy= -0.0458214213086793 | -0.0476061729363149 | -0.0440366605607697 occ= 0
MO #20  energy= -0.0458214213086759 | -0.0476061729363143 | -0.0440366605607687 occ= 0
MO #21  energy= -0.0454306870688283 | -0.0466493134567387 | -0.0442120606809198 occ= 0
MO #22  energy= -0.0451479949958484 | -0.0468803917693319 | -0.043415531860264 occ= 0
MO #23  energy= 0.0314209511036765 | 0.0209078890549825 | 0.0419340945388826 occ= 0
MO #24  energy= 0.0708201035952712 | 0.0483462576016281 | 0.0932939495889132 occ= 0
MO #25  energy= 0.071750204721771  | 0.062531850794053  | 0.0809682111873267 occ= 0
MO #26  energy= 0.0724775696670453 | 0.0632154667670075 | 0.0817395009885203 occ= 0
MO #27  energy= 0.0724775696670511 | 0.0632154667670137 | 0.0817395009885262 occ= 0
MO #28  energy= 0.0726684916354109 | 0.0668279449956276 | 0.078509038275192  occ= 0
MO #29  energy= 0.0747799482968464 | 0.0654330698275006 | 0.0841268627519491 occ= 0
MO #30  energy= 0.0760378606309971 | 0.0555413878449723 | 0.0965343334170173 occ= 0
MO #31  energy= 0.0760378606309974 | 0.0555413878449734 | 0.0965343334170194 occ= 0
MO #32  energy= 0.687853609525783  | 0.654157827498103  | 0.721549412417343  occ= 0
MO #33  energy= 0.750866978876362  | 0.726067758639985  | 0.775666199112743  occ= 0
MO #34  energy= 0.751662553353326  | 0.727434585003967  | 0.775890521702689  occ= 0
MO #35  energy= 0.751662553353326  | 0.727434585003967  | 0.775890521702686  occ= 0
MO #36  energy= 0.753520068520894  | 0.732574125110952  | 0.774466011930835  occ= 0
MO #37  energy= 0.754712308678688  | 0.729270309867198  | 0.780154307490177  occ= 0
MO #38  energy= 0.757858000792713  | 0.737931511620052  | 0.777784489965377  occ= 0
MO #39  energy= 0.757858000792714  | 0.73793151162005   | 0.777784489965378  occ= 0
MO #40  energy= 0.847059585903038  | 0.817998065901757  | 0.876121105904317  occ= 0
MO #41  energy= 0.849673044776294  | 0.783569710478752  | 0.915776360020686  occ= 0
MO #42  energy= 0.85423278350953   | 0.787034876661638  | 0.921431163977702  occ= 0
MO #43  energy= 0.854232783509533  | 0.787034876661638  | 0.921431163977704  occ= 0
MO #44  energy= 0.869533331897471  | 0.800338925646778  | 0.938728667748209  occ= 0
MO #45  energy= 1.75229426515282   | 1.68359728533621   | 1.82099124496943   occ= 0
MO #46  energy= 1.77838105547378   | 1.72333323058321   | 1.83342888036435   occ= 0
MO #47  energy= 1.77838105547379   | 1.72333323058322   | 1.83342888036436   occ= 0
MO #48  energy= 3.15628263203379   | 3.06111978726995   | 3.25144547679763   occ= 0
MO #49  energy= 3.15737388976278   | 3.07178317898769   | 3.24296460053787   occ= 0
MO #50  energy= 3.15737388976278   | 3.07178317898769   | 3.24296460053789   occ= 0
MO #51  energy= 3.15937074330807   | 3.08823433074933   | 3.23050715586681   occ= 0
MO #52  energy= 3.16896723304026   | 3.06894191525034   | 3.26899255083018   occ= 0
MO #53  energy= 3.1717942974711    | 3.100241754887     | 3.2433468400552    occ= 0
MO #54  energy= 3.17179429747111   | 3.10024175488702   | 3.24334684005521   occ= 0
MO #55  energy= 3.85494089976647   | 3.8170245641123    | 3.8928572363578    occ= 0
MO #56  energy= 3.8562186627822    | 3.81810142208056   | 3.89433590460391   occ= 0
MO #57  energy= 3.8562186627822    | 3.81810142208056   | 3.89433590460391   occ= 0
MO #58  energy= 3.85884442373596   | 3.81910702590266   | 3.89858182168101   occ= 0
MO #59  energy= 3.86312016523972   | 3.83092826413384   | 3.8953120663456    occ= 0
MO #60  energy= 3.86918480094671   | 3.83710163261252   | 3.90126796985781   occ= 0
MO #61  energy= 3.86918480094672   | 3.83710163261252   | 3.90126796985781   occ= 0
MO #62  energy= 3.88092673388133   | 3.85372675616767   | 3.908126711595     occ= 0
MO #63  energy= 3.88100413565124   | 3.85412291900177   | 3.90788534367203   occ= 0
MO #64  energy= 4.36074427917017   | 4.25684889946021   | 4.46463961010631   occ= 0
MO #65  energy= 4.3660909198927    | 4.32880009670549   | 4.40338174307989   occ= 0
MO #66  energy= 4.37090284262234   | 4.26716542974078   | 4.4746403017974    occ= 0
MO #67  energy= 4.37090284262234   | 4.26716542974077   | 4.47464030179739   occ= 0
MO #68  energy= 4.39776562646652   | 4.29144562048964   | 4.50408576183197   occ= 0
MO #69  energy= 4.90117890501066   | 4.83301143678019   | 4.96934636709539   occ= 0
MO #70  energy= 7.92897594613986   | 7.84843097911121   | 8.00952091316852   occ= 0
MO #71  energy= 7.96752640070525   | 7.90511208715932   | 8.02994071425119   occ= 0
MO #72  energy= 7.96752640070525   | 7.90511208715931   | 8.02994071425118   occ= 0
MO #73  energy= 10.7651083778621   | 10.634087534129    | 10.8961292215952   occ= 0
MO #74  energy= 10.7688126670455   | 10.6428823803873   | 10.8947429537037   occ= 0
MO #75  energy= 10.7688126670455   | 10.6428823803873   | 10.8947429537037   occ= 0
MO #76  energy= 10.7771903721165   | 10.6786452776481   | 10.8757354665848   occ= 0
MO #77  energy= 10.7834332227968   | 10.6455995126756   | 10.921266932918    occ= 0
MO #78  energy= 10.7973809714889   | 10.7064951438313   | 10.8882667991465   occ= 0
MO #79  energy= 10.7973809714889   | 10.7064951438313   | 10.8882667991465   occ= 0
MO #80  energy= 14.3333780615842   | 14.2491362245452   | 14.4176199000349   occ= 0
MO #81  energy= 14.3356267343779   | 14.2506877520892   | 14.4205657187894   occ= 0
MO #82  energy= 14.3356267343779   | 14.2506877520892   | 14.4205657187894   occ= 0
MO #83  energy= 14.3400108707917   | 14.2512279845322   | 14.4287937577238   occ= 0
MO #84  energy= 14.3494776585001   | 14.279580530755    | 14.4193747862453   occ= 0
MO #85  energy= 14.3605176869008   | 14.2909829816005   | 14.4300523949368   occ= 0
MO #86  energy= 14.3605176869008   | 14.2909829816005   | 14.4300523949368   occ= 0
MO #87  energy= 14.3831515742817   | 14.3255111630498   | 14.4407919855136   occ= 0
MO #88  energy= 14.3834024420993   | 14.3267429633794   | 14.4400619012758   occ= 0
 ** Mulliken pop on meta-lowdin orthogonal AOs  **
 ** Mulliken pop  **
pop of  0Fe 3s        1.99995
pop of  0Fe 4s        0.95446
pop of  0Fe 5s        0.02549
pop of  0Fe 6s        0.00753
pop of  0Fe 7s        0.00819
pop of  0Fe 8s        0.00403
pop of  0Fe 3px       1.99984
pop of  0Fe 3py       1.99984
pop of  0Fe 3pz       1.99980
pop of  0Fe 4px       0.00007
pop of  0Fe 4py       0.00007
pop of  0Fe 4pz       0.00014
pop of  0Fe 5px       0.00000
pop of  0Fe 5py       0.00000
pop of  0Fe 5pz       0.00001
pop of  0Fe 6px       0.00000
pop of  0Fe 6py       0.00000
pop of  0Fe 6pz       0.00001
pop of  0Fe 7px       0.00000
pop of  0Fe 7py       0.00000
pop of  0Fe 7pz       0.00000
pop of  0Fe 8px       0.00000
pop of  0Fe 8py       0.00000
pop of  0Fe 8pz       0.00000
pop of  0Fe 3dxy      1.99914
pop of  0Fe 3dyz      0.99672
pop of  0Fe 3dz^2     0.99643
pop of  0Fe 3dxz      0.99672
pop of  0Fe 3dx2-y2    0.99756
pop of  0Fe 4dxy      0.00025
pop of  0Fe 4dyz      0.00228
pop of  0Fe 4dz^2     0.00279
pop of  0Fe 4dxz      0.00228
pop of  0Fe 4dx2-y2    0.00162
pop of  0Fe 5dxy      0.00011
pop of  0Fe 5dyz      0.00028
pop of  0Fe 5dz^2     0.00032
pop of  0Fe 5dxz      0.00028
pop of  0Fe 5dx2-y2    0.00022
pop of  0Fe 6dxy      0.00047
pop of  0Fe 6dyz      0.00066
pop of  0Fe 6dz^2     0.00073
pop of  0Fe 6dxz      0.00066
pop of  0Fe 6dx2-y2    0.00056
pop of  0Fe 7dxy      0.00002
pop of  0Fe 7dyz      0.00003
pop of  0Fe 7dz^2     0.00003
pop of  0Fe 7dxz      0.00003
pop of  0Fe 7dx2-y2    0.00003
pop of  0Fe 4fy^3     0.00002
pop of  0Fe 4fxyz     0.00000
pop of  0Fe 4fyz^2    0.00000
pop of  0Fe 4fz^3     0.00002
pop of  0Fe 4fxz^2    0.00000
pop of  0Fe 4fzx^2    0.00000
pop of  0Fe 4fx^3     0.00002
pop of  0Fe 5fy^3     0.00004
pop of  0Fe 5fxyz     0.00000
pop of  0Fe 5fyz^2    0.00000
pop of  0Fe 5fz^3     0.00002
pop of  0Fe 5fxz^2    0.00000
pop of  0Fe 5fzx^2    0.00000
pop of  0Fe 5fx^3     0.00004
pop of  0Fe 6fy^3     0.00001
pop of  0Fe 6fxyz     0.00000
pop of  0Fe 6fyz^2    0.00000
pop of  0Fe 6fz^3     0.00000
pop of  0Fe 6fxz^2    0.00000
pop of  0Fe 6fzx^2    0.00000
pop of  0Fe 6fx^3     0.00001
pop of  0Fe 5g-4      0.00000
pop of  0Fe 5g-3      0.00000
pop of  0Fe 5g-2      0.00000
pop of  0Fe 5g-1      0.00001
pop of  0Fe 5g 0      0.00001
pop of  0Fe 5g 1      0.00001
pop of  0Fe 5g 2      0.00000
pop of  0Fe 5g 3      0.00000
pop of  0Fe 5g 4      0.00000
pop of  0Fe 6g-4      0.00000
pop of  0Fe 6g-3      0.00000
pop of  0Fe 6g-2      0.00001
pop of  0Fe 6g-1      0.00001
pop of  0Fe 6g 0      0.00001
pop of  0Fe 6g 1      0.00001
pop of  0Fe 6g 2      0.00001
pop of  0Fe 6g 3      0.00000
pop of  0Fe 6g 4      0.00001
 ** Mulliken atomic charges  **
charge of  0Fe =      1.00000

******** <class 'pyscf.mcscf.mc1step.CASSCF'> flags ********
CAS (6e+1e, 6o), ncore = 4, nvir = 78
max_cycle_macro = 50
max_cycle_micro = 4
conv_tol = 1e-07
conv_tol_grad = None
orbital rotation max_stepsize = 0.02
augmented hessian ah_max_cycle = 30
augmented hessian ah_conv_tol = 1e-12
augmented hessian ah_linear dependence = 1e-14
augmented hessian ah_level shift = 0
augmented hessian ah_start_tol = 2.5
augmented hessian ah_start_cycle = 3
augmented hessian ah_grad_trust_region = 3
kf_trust_region = 3
kf_interval = 4
ci_response_space = 4
ci_grad_trust_region = 3
with_dep4 0
natorb = False
canonicalization = True
chkfile = ./scratch/148111/tmpRuvfKl
max_memory 4000 MB (current use 203 MB)
internal_rotation = False

******** SHCI flags ********
executable             = /home/bamu3429/softwares/dice/Dice
mpiprefix              = mpirun -np 28
scratchDirectory       = ./scratch/148111
integralFile           = ./FCIDUMP
configFile             = ./input.dat
outputFile             = ./output.dat
maxIter                = 6
sweep_iter             = []
sweep_epsilon          = []
nPTiter                = 0
Stochastic             = True
fullrestart            = False
restart                = False
num_thrds              = 12
memory                 = None

CASCI E = -122.808039499552  S^2 = 8.7500000
Set conv_tol_grad to 0.000316228
macro iter 1 (1 JK  1 micro), CASSCF E = -122.808039499552  dE = 0  S^2 = 8.7500000
               |grad[o]|=3.19e-06  |grad[c]|= None  |ddm|=    0
1-step CASSCF converged in 1 macro (1 JK 1 micro) steps
CASSCF canonicalization
CASSCF energy = -122.808039499552


--------------------------------------------------
                 ICMPSPT CALCULATION              
--------------------------------------------------

Perturbation type: MRLCC
With fully internally contracted scheme
With third order correction

Preparing necessary RDMs
......production of RDMs took       0.64 sec
Reading binary 4RDM from DICE
......reading the RDM took          1.04 sec

(GOOD) Trace 4RDM:    840.0 =    7*    6*    5*    4
(GOOD) Trace 3RDM:    210.0 =    7*    6*    5
(GOOD) Trace 2RDM:     42.0 =    7*    6
(GOOD) Trace 1RDM:      7.0 =    7

Producing the integrals
......production of INT took      89.47 sec

Energy_core =  -101.635719297
Energy      =  -122.8080395

WARNING: Have to use natural orbitals from CAASCF
         offdiagonal elements: 0.990080703316

Basic ingredients written to int/
......savings of INGREDIENTS took      17.66 sec

Second-order:
perturber CCVV --        -0.097779725
perturber CCAV --        -0.037637076
perturber ACVV --        -0.185993464
perturber CCAA --        -0.017754345
perturber AAVV --        -0.150586019
perturber CAAV --        -0.108812240
perturber AAAV --        -0.004746328
perturber AAAC --        -0.000000000
Total:                   -0.603309198

Third-order:              0.001969925

Total PT       --        -0.601339274

