 &FCI NORB=3 ,NELEC=4 ,MS2=2,
  ORBSYM=1,1,1,
  ISYM=1,
 &END
  7.852893870462e-01    1  1  1  1
  3.988636255685e-02    2  1  2  1
  7.253988434414e-01    2  2  1  1
  8.288480659539e-01    2  2  2  2
  3.988636276522e-02    3  1  3  1
  4.201398053801e-02    3  2  3  2
  7.253988467352e-01    3  3  1  1
  7.448201088492e-01    3  3  2  2
  8.288480738965e-01    3  3  3  3
 -2.763610244391e+00    1  1  0  0
 -1.210148445842e-12    2  1  0  0
 -2.817225719324e+00    2  2  0  0
 -2.255178489134e-12    3  1  0  0
  2.253385870593e-12    3  2  0  0
 -2.817225728925e+00    3  3  0  0
     -8.800113626684   0  0  0  0
