 &FCI NORB=6 ,NELEC=6 ,MS2=6,
  ORBSYM=1,1,1,1,1,1,
  ISYM=1,
 &END
  1.018711755291e+00    1  1  1  1
  4.976781218420e-04    2  1  1  1
  6.844223082049e-04    2  1  2  1
  8.881151114175e-02    2  2  1  1
  6.753836147166e-06    2  2  2  1
  7.134269381320e-02    2  2  2  2
  3.894759087358e-04    3  1  1  1
 -1.461015392478e-03    3  1  2  1
  1.431855985858e-06    3  1  2  2
  3.511013751034e-03    3  1  3  1
 -1.439322151715e-02    3  2  1  1
 -4.300893128069e-06    3  2  2  1
  1.888675082904e-04    3  2  2  2
 -2.209521635095e-05    3  2  3  1
  4.327091645188e-03    3  2  3  2
  1.123131881976e-01    3  3  1  1
  3.371617906889e-07    3  3  2  1
  6.290018707520e-02    3  3  2  2
  5.137253330874e-05    3  3  3  1
 -3.215958559335e-04    3  3  3  2
  7.128490872892e-02    3  3  3  3
 -2.951784684131e-03    4  1  1  1
  2.557076130499e-03    4  1  2  1
 -1.947238361523e-05    4  1  2  2
 -6.113196272978e-03    4  1  3  1
  5.536161451526e-05    4  1  3  2
 -1.333711734618e-04    4  1  3  3
  1.083863780267e-02    4  1  4  1
  2.310055738241e-02    4  2  1  1
  1.421965596693e-05    4  2  2  1
 -4.220317592587e-04    4  2  2  2
  1.407089624470e-05    4  2  3  1
  1.289587539258e-04    4  2  3  2
  1.085471515995e-03    4  2  3  3
 -5.683146090874e-05    4  2  4  1
  4.207298336009e-03    4  2  4  2
 -5.175511233375e-02    4  3  1  1
 -1.242557711865e-05    4  3  2  1
 -4.324671885510e-04    4  3  2  2
 -2.597918172641e-05    4  3  3  1
  7.654622318737e-04    4  3  3  2
 -9.512574933894e-04    4  3  3  3
  1.090815051939e-04    4  3  4  1
 -1.545972327278e-03    4  3  4  2
  7.025382572744e-03    4  3  4  3
  1.697393002046e-01    4  4  1  1
  1.113518784394e-05    4  4  2  1
  6.320190476124e-02    4  4  2  2
  8.036167273796e-05    4  4  3  1
 -1.960424516013e-03    4  4  3  2
  6.610872691934e-02    4  4  3  3
 -2.427832277913e-04    4  4  4  1
  2.314626965779e-03    4  4  4  2
 -5.207127450719e-03    4  4  4  3
  7.811437440072e-02    4  4  4  4
 -2.864296332990e-02    5  1  1  1
  9.691728160925e-04    5  1  2  1
  3.253203024801e-05    5  1  2  2
 -1.423441211157e-03    5  1  3  1
 -3.445398203915e-04    5  1  3  2
  9.184190779603e-04    5  1  3  3
  6.300523610198e-03    5  1  4  1
  5.696666374992e-04    5  1  4  2
 -1.502818663506e-03    5  1  4  3
  2.507826535908e-03    5  1  4  4
  1.336077174196e-01    5  1  5  1
  4.180301491118e-04    5  2  1  1
  2.215449156314e-04    5  2  2  1
  8.476456350266e-06    5  2  2  2
 -5.177413060575e-04    5  2  3  1
  5.683844866806e-06    5  2  3  2
 -4.097315449187e-05    5  2  3  3
  7.192030805512e-04    5  2  4  1
 -1.105071531127e-05    5  2  4  2
  6.652243615656e-05    5  2  4  3
 -1.093210416681e-04    5  2  4  4
 -5.525636616707e-03    5  2  5  1
  6.784019503456e-04    5  2  5  2
  2.172516277894e-03    5  3  1  1
 -5.329549794984e-04    5  3  2  1
  5.529674654752e-05    5  3  2  2
  1.240202825968e-03    5  3  3  1
 -8.604728522840e-05    5  3  3  2
  2.374450363805e-04    5  3  3  3
 -1.726251103142e-03    5  3  4  1
  1.293766547914e-04    5  3  4  2
 -3.095866532685e-04    5  3  4  3
  5.929725319109e-04    5  3  4  4
  1.251539312893e-02    5  3  5  1
 -1.401857023987e-03    5  3  5  2
  3.369315075441e-03    5  3  5  3
  6.194558175850e-03    5  4  1  1
  8.608072422531e-04    5  4  2  1
 -5.786261659304e-05    5  4  2  2
 -1.989162952666e-03    5  4  3  1
  3.448747275691e-06    5  4  3  2
 -1.396480768279e-04    5  4  3  3
  2.699582108186e-03    5  4  4  1
 -6.222602316249e-06    5  4  4  2
  2.380913225488e-05    5  4  4  3
 -1.577183030809e-04    5  4  4  4
 -2.164521152412e-02    5  4  5  1
  2.387790759797e-03    5  4  5  2
 -5.623517990756e-03    5  4  5  3
  9.680306714103e-03    5  4  5  4
  8.804781035183e-01    5  5  1  1
 -2.310325133187e-03    5  5  2  1
  8.813607925128e-02    5  5  2  2
  5.150742243184e-03    5  5  3  1
 -1.281370663902e-02    5  5  3  2
  1.088672584330e-01    5  5  3  3
 -8.603207024360e-03    5  5  4  1
  2.060310182989e-02    5  5  4  2
 -4.580772342082e-02    5  5  4  3
  1.593897024276e-01    5  5  4  4
  3.041025329302e-02    5  5  5  1
 -5.733538081095e-03    5  5  5  2
  1.705153950404e-02    5  5  5  3
 -2.072878108259e-02    5  5  5  4
  9.055759474055e-01    5  5  5  5
  4.108263247708e-03    6  1  1  1
 -6.699789933822e-03    6  1  2  1
 -1.087133295128e-05    6  1  2  2
  1.614925858582e-02    6  1  3  1
 -7.828116040338e-05    6  1  3  2
  1.611466802613e-04    6  1  3  3
 -2.859481203890e-02    6  1  4  1
  3.320390414376e-05    6  1  4  2
 -2.973664498481e-05    6  1  4  3
  1.779562702761e-04    6  1  4  4
 -1.709494452838e-02    6  1  5  1
 -1.944882615667e-03    6  1  5  2
  4.672189025216e-03    6  1  5  3
 -7.379124745996e-03    6  1  5  4
  1.939398476622e-02    6  1  5  5
  7.592892952665e-02    6  1  6  1
 -6.084902561149e-02    6  2  1  1
 -1.409114452798e-05    6  2  2  1
 -1.866773722214e-03    6  2  2  2
 -3.916623125841e-05    6  2  3  1
  3.782947459565e-04    6  2  3  2
 -4.053287970908e-03    6  2  3  3
  1.417237513306e-04    6  2  4  1
 -4.556259187042e-04    6  2  4  2
  3.640293656269e-03    6  2  4  3
 -8.039487396438e-03    6  2  4  4
 -1.651026679062e-03    6  2  5  1
  8.327547726428e-05    6  2  5  2
 -3.712261398580e-04    6  2  5  3
  6.871905025779e-05    6  2  5  4
 -5.434476718818e-02    6  2  5  5
 -8.302326404875e-05    6  2  6  1
  4.891813640617e-03    6  2  6  2
  1.446524878469e-01    6  3  1  1
  2.435721934837e-05    6  3  2  1
  5.548285377261e-03    6  3  2  2
  9.793585309033e-05    6  3  3  1
 -2.180452274924e-03    6  3  3  2
  8.193453584221e-03    6  3  3  3
 -3.181159264983e-04    6  3  4  1
  3.863020547026e-03    6  3  4  2
 -7.427090337395e-03    6  3  4  3
  1.897042172092e-02    6  3  4  4
  3.973075195819e-03    6  3  5  1
 -1.870202326221e-04    6  3  5  2
  9.125068580505e-04    6  3  5  3
 -1.895722484823e-04    6  3  5  4
  1.289982751354e-01    6  3  5  5
  1.623223482002e-04    6  3  6  1
 -1.001426023410e-02    6  3  6  2
  2.440704514829e-02    6  3  6  3
 -2.515388337042e-01    6  4  1  1
 -4.372039015917e-05    6  4  2  1
 -9.607633732858e-03    6  4  2  2
 -1.467374389001e-04    6  4  3  1
  4.182690795135e-03    6  4  3  2
 -1.644155006701e-02    6  4  3  3
  5.368527665424e-04    6  4  4  1
 -6.418604030207e-03    6  4  4  2
  1.424321203472e-02    6  4  4  3
 -3.057305470113e-02    6  4  4  4
 -6.443866602778e-03    6  4  5  1
  2.827806816355e-04    6  4  5  2
 -1.474176246471e-03    6  4  5  3
  2.533756955684e-04    6  4  5  4
 -2.240438881091e-01    6  4  5  5
 -2.215055389769e-04    6  4  6  1
  1.735833426195e-02    6  4  6  2
 -4.117406012778e-02    6  4  6  3
  7.222961556803e-02    6  4  6  4
 -2.482268880452e-02    6  5  1  1
 -2.283588490222e-03    6  5  2  1
 -1.379243485077e-04    6  5  2  2
  5.297048110740e-03    6  5  3  1
  1.108470878605e-04    6  5  3  2
 -1.454282610517e-04    6  5  3  3
 -7.229122566269e-03    6  5  4  1
 -2.049312555647e-04    6  5  4  2
  3.743874438223e-04    6  5  4  3
 -5.808408880037e-04    6  5  4  4
  5.569260355169e-02    6  5  5  1
 -6.070619015270e-03    6  5  5  2
  1.452841815745e-02    6  5  5  3
 -2.502965800278e-02    6  5  5  4
  4.457685496531e-02    6  5  5  5
  2.000384712122e-02    6  5  6  1
  4.099719093560e-04    6  5  6  2
 -8.329765967002e-04    6  5  6  3
  1.736958565180e-03    6  5  6  4
  6.534631448195e-02    6  5  6  5
  7.286484498289e-01    6  6  1  1
  2.126147979234e-04    6  6  2  1
  8.290772254910e-02    6  6  2  2
  1.684417685861e-04    6  6  3  1
 -1.110849306471e-02    6  6  3  2
  1.008835329271e-01    6  6  3  3
 -1.028083975858e-03    6  6  4  1
  1.764365615017e-02    6  6  4  2
 -3.932913979617e-02    6  6  4  3
  1.443546949820e-01    6  6  4  4
  1.707375559226e-02    6  6  5  1
 -6.764935913332e-04    6  6  5  2
  3.800348672626e-03    6  6  5  3
 -4.347355886285e-04    6  6  5  4
  6.553086593389e-01    6  6  5  5
 -5.067639001536e-04    6  6  6  1
 -4.616883750441e-02    6  6  6  2
  1.093740599425e-01    6  6  6  3
 -1.900695380684e-01    6  6  6  4
 -5.326209316198e-03    6  6  6  5
  5.657049721387e-01    6  6  6  6
 -7.842938272503e+00    1  1  0  0
 -2.552429147743e-03    2  1  0  0
 -5.120186468650e-01    2  2  0  0
  1.876261461690e-03    3  1  0  0
  7.203823730276e-02    3  2  0  0
 -6.276542613595e-01    3  3  0  0
  1.149730162935e-03    4  1  0  0
 -1.148486692403e-01    4  2  0  0
  2.550250900898e-01    4  3  0  0
 -9.091295943099e-01    4  4  0  0
  1.698107227874e-01    5  1  0  0
  6.372964110855e-03    5  2  0  0
 -3.179547796039e-02    5  3  0  0
  1.743138129631e-02    5  4  0  0
 -5.354858462162e+00    5  5  0  0
  1.527439432042e-02    6  1  0  0
  3.108785150545e-01    6  2  0  0
 -7.340229735952e-01    6  3  0  0
  1.273908538579e+00    6  4  0  0
  7.240651642594e-03    6  5  0  0
 -3.720086122850e+00    6  6  0  0
    -63.004568219454   0  0  0  0
