#INFO: **** input file is /projects/bamu3429/BENCHMARK/fresh_atoms/MRPT/vqz/atoms/Cr_0/mrpt.py ****
import json
from pyscf import gto,scf,mcscf, fci, lo, ci, cc
from pyscf.scf import ROHF, UHF,ROKS
import numpy as np
import pandas as pd

# THIS IS WERE IT STARTS ====================================

df=json.load(open("../../../trail.json"))

spins={'Sc':1, 'Ti':2, 'V':3, 'Cr':6, 'Mn':5, 'Fe':4, 'Cu':1}

nd={'Sc':(1,0), 'Ti':(2,0), 'V':(3,0), 'Cr':(5,0), 'Mn':(5,0), 'Fe':(5,1), 'Cu':(5,5)}

cas={'Sc':3, 'Ti':4, 'V':5, 'Cr':6, 'Mn':7, 'Fe':8, 'Cu':11}

datacsv={}
for nm in ['atom','charge','method','basis','pseudopotential','hf',
           'totalenergy','totalenergy-stocherr','totalenergy-syserr']:
  datacsv[nm]=[]

basis='vqz'
el='Cr'
charge=0

mol=gto.Mole()
mol.ecp={}
mol.basis={}
mol.ecp[el]=gto.basis.parse_ecp(df[el]['ecp'])
mol.basis[el]=gto.basis.parse(df[el][basis])
mol.charge=charge
if el == 'Cr' or el == 'Cu':
  mol.spin=spins[el]-charge
else:
  mol.spin=spins[el]+charge
mol.build(atom="%s 0. 0. 0."%el,verbose=4)

m=ROHF(mol)
m.level_shift=1000.0
dm=m.from_chk("../../../../HF/atoms/"+el+basis+str(charge)+".chk")
hf=m.kernel(dm)
m.analyze()

from pyscf.shciscf import shci
mc = shci.SHCISCF(m, 6, cas[el]-charge)
#mc.fcisolver.conv_tol = 1e-14
mc.fcisolver.mpiprefix="mpirun -np 28"
mc.fcisolver.num_thrds=12
mc.verbose = 4
cas=mc.kernel()[0]
 
from pyscf.icmpspt import icmpspt
pt=icmpspt.icmpspt(mc,rdmM=500, PTM=1000,\
                          pttype="MRLCC",\
                          third_order=True,\
                          fully_ic=True,\
                          do_dm4=True)

datacsv['atom'].append(el)
datacsv['charge'].append(charge)
datacsv['method'].append('MRPT')
datacsv['basis'].append(basis)
datacsv['pseudopotential'].append('trail')
datacsv['hf'].append(hf)
datacsv['totalenergy'].append(cas+pt)
datacsv['totalenergy-stocherr'].append(0.0)
datacsv['totalenergy-syserr'].append(0.0)
pd.DataFrame(datacsv).to_csv(el+".csv",index=False)

#INFO: ******************** input file end ********************


System: ('Linux', 'bnode0304.rc.int.colorado.edu', '3.10.0-514.41.1.el7.x86_64', '#1 SMP Wed Jan 17 10:26:16 EST 2018', 'x86_64', 'x86_64')  Threads 28
Python 2.7.11 (default, Mar 22 2016, 01:42:54) 
[GCC Intel(R) C++ gcc 4.8 mode]
numpy 1.11.1  scipy 0.17.1
Date: Thu Mar 29 12:53:27 2018
PySCF version 1.4
PySCF path  /projects/bamu3429/softwares/pyscf_uptodate/pyscf
GIT ORIG_HEAD e2292e6edec2b0e0024c21b81de03db1d7bd4121
GIT HEAD      ref: refs/heads/master
GIT master branch  f3591ef22170896a4cdc2aadaa6f5da388ffcadb

[INPUT] VERBOSE 4
[INPUT] num atoms = 1
[INPUT] num electrons = 14
[INPUT] charge = 0
[INPUT] spin (= nelec alpha-beta = 2S) = 6
[INPUT] symmetry False subgroup None
[INPUT]  1 Cr     0.000000000000   0.000000000000   0.000000000000 AA    0.000000000000   0.000000000000   0.000000000000 Bohr
[INPUT] ---------------- BASIS SET ---------------- 
[INPUT] l, kappa, [nprim/nctr], expnt,             c_1 c_2 ...
[INPUT] Cr
[INPUT] 0    0    [12   /1   ]  41.45590127       0.010332
                                22.20089455       -0.091393
                                12.37022616       0.412444
                                7.15443966        -0.722409
                                3.63012556        0.039693
                                1.88942247        0.321055
                                1.04381355        0.652182
                                0.47307333        0.264443
                                0.22628807        -0.008646
                                0.10750747        0.012188
                                0.05101028        -0.00242
                                0.0242372         0.001733
[INPUT] 0    0    [12   /1   ]  41.45590127       -0.001971
                                22.20089455       0.019152
                                12.37022616       -0.094562
                                7.15443966        0.178991
                                3.63012556        -0.015716
                                1.88942247        -0.084882
                                1.04381355        -0.243744
                                0.47307333        -0.214624
                                0.22628807        0.055092
                                0.10750747        0.415903
                                0.05101028        0.543473
                                0.0242372         0.170131
[INPUT] 0    0    [12   /1   ]  41.45590127       -0.006227
                                22.20089455       0.071299
                                12.37022616       -0.410892
                                7.15443966        0.917584
                                3.63012556        -0.221951
                                1.88942247        -1.345636
                                1.04381355        -0.06992
                                0.47307333        0.755692
                                0.22628807        0.739114
                                0.10750747        0.112359
                                0.05101028        -0.547421
                                0.0242372         -0.284669
[INPUT] 0    0    [12   /1   ]  41.45590127       -0.006182
                                22.20089455       0.080693
                                12.37022616       -0.526764
                                7.15443966        1.364382
                                3.63012556        -0.812528
                                1.88942247        -2.239916
                                1.04381355        1.755013
                                0.47307333        1.667635
                                0.22628807        -1.426447
                                0.10750747        -1.028337
                                0.05101028        0.585035
                                0.0242372         0.607504
[INPUT] 0    0    [12   /1   ]  41.45590127       -2.6e-05
                                22.20089455       -0.072001
                                12.37022616       0.777417
                                7.15443966        -2.790553
                                3.63012556        4.512611
                                1.88942247        -0.555137
                                1.04381355        -4.087256
                                0.47307333        3.038568
                                0.22628807        0.867446
                                0.10750747        -2.097137
                                0.05101028        -0.014926
                                0.0242372         0.887447
[INPUT] 0    0    [1    /1   ]  0.0242372            1
[INPUT] 0    0    [1    /1   ]  0.01151614           1
[INPUT] 1    0    [12   /1   ]  28.88080716       -0.002973
                                13.19380569       0.044202
                                7.25722596        -0.232476
                                4.84342676        0.167654
                                2.76949909        0.179744
                                1.50719356        0.46058
                                0.72516508        0.338218
                                0.36385743        0.097984
                                0.16204617        0.012145
                                0.07447705        -0.000948
                                0.03422994        0.000821
                                0.01573221        -0.00022
[INPUT] 1    0    [12   /1   ]  28.88080716       0.000536
                                13.19380569       -0.009363
                                7.25722596        0.054752
                                4.84342676        -0.042977
                                2.76949909        -0.049244
                                1.50719356        -0.128712
                                0.72516508        -0.11682
                                0.36385743        0.044517
                                0.16204617        0.322192
                                0.07447705        0.482878
                                0.03422994        0.275764
                                0.01573221        0.025472
[INPUT] 1    0    [12   /1   ]  28.88080716       -0.000601
                                13.19380569       0.036419
                                7.25722596        -0.319649
                                4.84342676        0.265625
                                2.76949909        0.800568
                                1.50719356        0.1134
                                0.72516508        -0.940194
                                0.36385743        -0.356195
                                0.16204617        0.582848
                                0.07447705        0.421307
                                0.03422994        0.024352
                                0.01573221        0.004528
[INPUT] 1    0    [12   /1   ]  28.88080716       0.001606
                                13.19380569       0.051311
                                7.25722596        -0.743081
                                4.84342676        1.253251
                                2.76949909        1.03744
                                1.50719356        -1.776327
                                0.72516508        -0.552415
                                0.36385743        1.568643
                                0.16204617        -0.082341
                                0.07447705        -0.666944
                                0.03422994        -0.027493
                                0.01573221        -0.01175
[INPUT] 1    0    [12   /1   ]  28.88080716       0.013614
                                13.19380569       -0.041885
                                7.25722596        -1.136499
                                4.84342676        3.740841
                                2.76949909        -2.3618
                                1.50719356        -1.491548
                                0.72516508        2.916436
                                0.36385743        -1.186695
                                0.16204617        -1.003943
                                0.07447705        1.033584
                                0.03422994        -0.005965
                                0.01573221        0.033567
[INPUT] 1    0    [1    /1   ]  0.01573221           1
[INPUT] 1    0    [1    /1   ]  0.00723058           1
[INPUT] 2    0    [10   /1   ]  46.50908408       0.000358
                                21.60133229       -0.010512
                                11.03652449       0.11118
                                4.54288797        0.164184
                                2.18180243        0.267436
                                1.04009058        0.310836
                                0.48262909        0.28353
                                0.21570372        0.173079
                                0.10059873        0.057279
                                0.04653409        0.00937
[INPUT] 2    0    [10   /1   ]  46.50908408       0.000742
                                21.60133229       0.005602
                                11.03652449       -0.103642
                                4.54288797        -0.218406
                                2.18180243        -0.413398
                                1.04009058        -0.079422
                                0.48262909        0.294538
                                0.21570372        0.416612
                                0.10059873        0.235487
                                0.04653409        0.050239
[INPUT] 2    0    [10   /1   ]  46.50908408       -0.00365
                                21.60133229       0.008162
                                11.03652449       0.079193
                                4.54288797        0.433939
                                2.18180243        0.349419
                                1.04009058        -0.696856
                                0.48262909        -0.418157
                                0.21570372        0.309031
                                0.10059873        0.451053
                                0.04653409        0.102595
[INPUT] 2    0    [10   /1   ]  46.50908408       2e-06
                                21.60133229       -0.017312
                                11.03652449       0.289925
                                4.54288797        0.891377
                                2.18180243        -1.014212
                                1.04009058        -0.495442
                                0.48262909        0.952535
                                0.21570372        0.034125
                                0.10059873        -0.457461
                                0.04653409        -0.126771
[INPUT] 2    0    [1    /1   ]  0.04653409           1
[INPUT] 2    0    [1    /1   ]  0.02152533           1
[INPUT] 3    0    [1    /1   ]  3.786904             1
[INPUT] 3    0    [1    /1   ]  1.303251             1
[INPUT] 3    0    [1    /1   ]  0.448509             1
[INPUT] 3    0    [1    /1   ]  0.1543527            1
[INPUT] 4    0    [1    /1   ]  3.665821             1
[INPUT] 4    0    [1    /1   ]  1.288052             1
[INPUT] 4    0    [1    /1   ]  0.45258017           1
[INPUT] 5    0    [1    /1   ]  3.056986             1
[INPUT] 5    0    [1    /1   ]  1.07412687           1
nuclear repulsion = 0
number of shells = 29
number of NR pGTOs = 535
number of NR cGTOs = 135
basis = {'Cr': [[0, [41.45590127, 0.010332], [22.20089455, -0.091393], [12.37022616, 0.412444], [7.15443966, -0.722409], [3.63012556, 0.039693], [1.88942247, 0.321055], [1.04381355, 0.652182], [0.47307333, 0.264443], [0.22628807, -0.008646], [0.10750747, 0.012188], [0.05101028, -0.00242], [0.0242372, 0.001733]], [0, [41.45590127, -0.001971], [22.20089455, 0.019152], [12.37022616, -0.094562], [7.15443966, 0.178991], [3.63012556, -0.015716], [1.88942247, -0.084882], [1.04381355, -0.243744], [0.47307333, -0.214624], [0.22628807, 0.055092], [0.10750747, 0.415903], [0.05101028, 0.543473], [0.0242372, 0.170131]], [0, [41.45590127, -0.006227], [22.20089455, 0.071299], [12.37022616, -0.410892], [7.15443966, 0.917584], [3.63012556, -0.221951], [1.88942247, -1.345636], [1.04381355, -0.06992], [0.47307333, 0.755692], [0.22628807, 0.739114], [0.10750747, 0.112359], [0.05101028, -0.547421], [0.0242372, -0.284669]], [0, [41.45590127, -0.006182], [22.20089455, 0.080693], [12.37022616, -0.526764], [7.15443966, 1.364382], [3.63012556, -0.812528], [1.88942247, -2.239916], [1.04381355, 1.755013], [0.47307333, 1.667635], [0.22628807, -1.426447], [0.10750747, -1.028337], [0.05101028, 0.585035], [0.0242372, 0.607504]], [0, [41.45590127, -2.6e-05], [22.20089455, -0.072001], [12.37022616, 0.777417], [7.15443966, -2.790553], [3.63012556, 4.512611], [1.88942247, -0.555137], [1.04381355, -4.087256], [0.47307333, 3.038568], [0.22628807, 0.867446], [0.10750747, -2.097137], [0.05101028, -0.014926], [0.0242372, 0.887447]], [0, [0.0242372, 1.0]], [0, [0.01151614, 1.0]], [1, [28.88080716, -0.002973], [13.19380569, 0.044202], [7.25722596, -0.232476], [4.84342676, 0.167654], [2.76949909, 0.179744], [1.50719356, 0.46058], [0.72516508, 0.338218], [0.36385743, 0.097984], [0.16204617, 0.012145], [0.07447705, -0.000948], [0.03422994, 0.000821], [0.01573221, -0.00022]], [1, [28.88080716, 0.000536], [13.19380569, -0.009363], [7.25722596, 0.054752], [4.84342676, -0.042977], [2.76949909, -0.049244], [1.50719356, -0.128712], [0.72516508, -0.11682], [0.36385743, 0.044517], [0.16204617, 0.322192], [0.07447705, 0.482878], [0.03422994, 0.275764], [0.01573221, 0.025472]], [1, [28.88080716, -0.000601], [13.19380569, 0.036419], [7.25722596, -0.319649], [4.84342676, 0.265625], [2.76949909, 0.800568], [1.50719356, 0.1134], [0.72516508, -0.940194], [0.36385743, -0.356195], [0.16204617, 0.582848], [0.07447705, 0.421307], [0.03422994, 0.024352], [0.01573221, 0.004528]], [1, [28.88080716, 0.001606], [13.19380569, 0.051311], [7.25722596, -0.743081], [4.84342676, 1.253251], [2.76949909, 1.03744], [1.50719356, -1.776327], [0.72516508, -0.552415], [0.36385743, 1.568643], [0.16204617, -0.082341], [0.07447705, -0.666944], [0.03422994, -0.027493], [0.01573221, -0.01175]], [1, [28.88080716, 0.013614], [13.19380569, -0.041885], [7.25722596, -1.136499], [4.84342676, 3.740841], [2.76949909, -2.3618], [1.50719356, -1.491548], [0.72516508, 2.916436], [0.36385743, -1.186695], [0.16204617, -1.003943], [0.07447705, 1.033584], [0.03422994, -0.005965], [0.01573221, 0.033567]], [1, [0.01573221, 1.0]], [1, [0.00723058, 1.0]], [2, [46.50908408, 0.000358], [21.60133229, -0.010512], [11.03652449, 0.11118], [4.54288797, 0.164184], [2.18180243, 0.267436], [1.04009058, 0.310836], [0.48262909, 0.28353], [0.21570372, 0.173079], [0.10059873, 0.057279], [0.04653409, 0.00937]], [2, [46.50908408, 0.000742], [21.60133229, 0.005602], [11.03652449, -0.103642], [4.54288797, -0.218406], [2.18180243, -0.413398], [1.04009058, -0.079422], [0.48262909, 0.294538], [0.21570372, 0.416612], [0.10059873, 0.235487], [0.04653409, 0.050239]], [2, [46.50908408, -0.00365], [21.60133229, 0.008162], [11.03652449, 0.079193], [4.54288797, 0.433939], [2.18180243, 0.349419], [1.04009058, -0.696856], [0.48262909, -0.418157], [0.21570372, 0.309031], [0.10059873, 0.451053], [0.04653409, 0.102595]], [2, [46.50908408, 2e-06], [21.60133229, -0.017312], [11.03652449, 0.289925], [4.54288797, 0.891377], [2.18180243, -1.014212], [1.04009058, -0.495442], [0.48262909, 0.952535], [0.21570372, 0.034125], [0.10059873, -0.457461], [0.04653409, -0.126771]], [2, [0.04653409, 1.0]], [2, [0.02152533, 1.0]], [3, [3.786904, 1.0]], [3, [1.303251, 1.0]], [3, [0.448509, 1.0]], [3, [0.1543527, 1.0]], [4, [3.665821, 1.0]], [4, [1.288052, 1.0]], [4, [0.45258017, 1.0]], [5, [3.056986, 1.0]], [5, [1.07412687, 1.0]]]}
ecp = {'Cr': [10, [[-1, [[], [[13.07675203, 14.0]], [[15.15807582, 1258.1555038], [4.62785686, -98.60998187], [15.41136599, -6552.46055066], [15.38690637, 5353.09061557]], [[5.24897308, 183.07452839]]]], [0, [[], [], [[9.77680844, -91901.2080948], [9.95980111, 96320.14803227], [8.62275214, 3928.3135917], [12.29288144, -10977.62459544], [18.41316592, -1741.60409682], [16.38541961, 4413.26493033]], []]], [1, [[], [], [[12.00099996, -22156.17142851], [11.46524435, 21551.07876111], [16.23852226, 3703.78784703], [18.43861108, -1424.18632323], [8.88877941, -1964.93568469], [7.52644784, 317.50498882]], []]], [2, [[], [], [[11.1066837, -5435.29666496], [8.49801115, 7350.69608766], [12.28065533, 2443.80334995], [8.1885354, -5401.76770998], [14.34306836, 3881.23075486], [15.24784181, -2855.87137953]], []]]]]}
CPU time:         3.73


******** <class 'pyscf.scf.rohf.ROHF'> flags ********
method = ROHF
initial guess = minao
damping factor = 0
level shift factor = 1000.0
DIIS = <class 'pyscf.scf.diis.CDIIS'>
DIIS start cycle = 1
DIIS space = 8
SCF tol = 1e-09
SCF gradient tol = None
max. SCF cycles = 50
direct_scf = True
direct_scf_tol = 1e-13
chkfile to save SCF result = /projects/bamu3429/BENCHMARK/fresh_atoms/MRPT/vqz/atoms/Cr_0/tmpwWrmMf
max_memory 4000 MB (current use 190 MB)
num. doubly occ = 4  num. singly occ = 6
Set gradient conv threshold to 3.16228e-05
init E= -86.216934400744
  HOMO = 500.048424737096  LUMO = 1000.01453714768
cycle= 1 E= -86.2169344007441  delta_E= -9.95e-14  |g|= 3.43e-06  |ddm|= 3.17e-08

WARN: HOMO 0.0484247367625529 >= LUMO 0.0145371476804926

Extra cycle  E= -86.2169344006414  delta_E= 1.03e-10  |g|= 6.02e-06  |ddm|= 4.71e-05
converged SCF energy = -86.2169344006414
**** MO energy ****
                Roothaan           | alpha              | beta
MO #1   energy= -3.40956990115261  | -3.59558115747486  | -3.22355864453742  occ= 2
MO #2   energy= -2.10424187925278  | -2.32990698334714  | -1.8785767751584   occ= 2
MO #3   energy= -2.10424187925277  | -2.32990698334714  | -1.8785767751584   occ= 2
MO #4   energy= -2.10424187925277  | -2.32990698334714  | -1.8785767751584   occ= 2
MO #5   energy= -0.0792879853946479 | -0.225584941674803 | 0.0670086778113359 occ= 1
MO #6   energy= 0.0145371476804926 | 0.0134183818614627 | 0.0156559134995256 occ= 0
MO #7   energy= 0.0145371476804947 | 0.0134183818614638 | 0.0156559134995265 occ= 0
MO #8   energy= 0.0145371476804976 | 0.0134183818614634 | 0.0156559134995262 occ= 0
MO #9   energy= 0.0287535297443085 | 0.0262137757104308 | 0.0312935552077055 occ= 0
MO #10  energy= 0.0468843401481251 | 0.036826255190636  | 0.0569424251056374 occ= 0
MO #11  energy= 0.0468843401481319 | 0.0368262551906361 | 0.0569424251056365 occ= 0
MO #12  energy= 0.0468843401481376 | 0.036826255190636  | 0.0569424251056367 occ= 0
MO #13  energy= 0.0484247367624783 | -0.368779726343056 | 0.465629305696907  occ= 1
MO #14  energy= 0.0484247367624784 | -0.368779726343054 | 0.465629305696907  occ= 1
MO #15  energy= 0.0484247367625457 | -0.368779726343008 | 0.465629305697003  occ= 1
MO #16  energy= 0.0484247367625524 | -0.368779726343008 | 0.465629305697004  occ= 1
MO #17  energy= 0.0484247367625529 | -0.368779726343004 | 0.465629305697003  occ= 1
MO #18  energy= 0.0662752602871432 | 0.0653011058723684 | 0.0672490383910421 occ= 0
MO #19  energy= 0.066275260287145  | 0.0653011058723682 | 0.0672490383910419 occ= 0
MO #20  energy= 0.0662752602871464 | 0.0653011058723684 | 0.0672490383910414 occ= 0
MO #21  energy= 0.0662752602871464 | 0.0653011058723686 | 0.0672490383910423 occ= 0
MO #22  energy= 0.0662752602871482 | 0.0653011058723683 | 0.0672490383910426 occ= 0
MO #23  energy= 0.183795082984009  | 0.148485664025809  | 0.219104501942214  occ= 0
MO #24  energy= 0.183795082984011  | 0.148485664025809  | 0.219104501942214  occ= 0
MO #25  energy= 0.183795082984012  | 0.148485664025809  | 0.219104501942214  occ= 0
MO #26  energy= 0.214307790742439  | 0.198207046377942  | 0.230408583463346  occ= 0
MO #27  energy= 0.214868424951312  | 0.202981372750008  | 0.226755726591971  occ= 0
MO #28  energy= 0.214868424951312  | 0.202981372750012  | 0.226755726591975  occ= 0
MO #29  energy= 0.214868424951319  | 0.202981372750012  | 0.226755726591981  occ= 0
MO #30  energy= 0.21486842495132   | 0.202981372750013  | 0.226755726591983  occ= 0
MO #31  energy= 0.214868424951328  | 0.202981372750015  | 0.226755726591984  occ= 0
MO #32  energy= 0.604273483886836  | 0.588354213938839  | 0.62019275383484   occ= 0
MO #33  energy= 0.604273483886838  | 0.58835421393884   | 0.620192753834842  occ= 0
MO #34  energy= 0.604273483886839  | 0.588354213938838  | 0.62019275383484   occ= 0
MO #35  energy= 0.604273483886841  | 0.588354213938839  | 0.62019275383484   occ= 0
MO #36  energy= 0.604273483886841  | 0.588354213938841  | 0.620192753834843  occ= 0
MO #37  energy= 0.604273483886842  | 0.58835421393884   | 0.620192753834841  occ= 0
MO #38  energy= 0.604273483886843  | 0.58835421393884   | 0.620192753834841  occ= 0
MO #39  energy= 0.669533502120834  | 0.639717708015467  | 0.699349262603441  occ= 0
MO #40  energy= 0.811434005783455  | 0.751920920174441  | 0.87094707601335   occ= 0
MO #41  energy= 0.811434005783457  | 0.751920920174446  | 0.870947076013355  occ= 0
MO #42  energy= 0.811434005783461  | 0.751920920174444  | 0.870947076013353  occ= 0
MO #43  energy= 0.811434005783518  | 0.751920920174497  | 0.870947076013432  occ= 0
MO #44  energy= 0.811434005783519  | 0.751920920174496  | 0.870947076013427  occ= 0
MO #45  energy= 1.17637591948004   | 1.12346091872709   | 1.229290920233     occ= 0
MO #46  energy= 1.17637591948004   | 1.12346091872709   | 1.229290920233     occ= 0
MO #47  energy= 1.17637591948005   | 1.12346091872709   | 1.229290920233     occ= 0
MO #48  energy= 1.82824170676461   | 1.77312499481541   | 1.88335841871383   occ= 0
MO #49  energy= 1.82824170676462   | 1.7731249948154    | 1.88335841871383   occ= 0
MO #50  energy= 1.82824170676462   | 1.7731249948154    | 1.88335841871382   occ= 0
MO #51  energy= 1.82824170676462   | 1.7731249948154    | 1.88335841871383   occ= 0
MO #52  energy= 1.82824170676462   | 1.77312499481541   | 1.88335841871383   occ= 0
MO #53  energy= 1.82824170676462   | 1.77312499481541   | 1.88335841871384   occ= 0
MO #54  energy= 1.82824170676462   | 1.77312499481541   | 1.88335841871384   occ= 0
MO #55  energy= 2.17763893574314   | 2.15365753140362   | 2.20162034008266   occ= 0
MO #56  energy= 2.17763893574314   | 2.15365753140363   | 2.20162034008267   occ= 0
MO #57  energy= 2.17763893574315   | 2.15365753140363   | 2.20162034008266   occ= 0
MO #58  energy= 2.17763893574315   | 2.15365753140363   | 2.20162034008267   occ= 0
MO #59  energy= 2.17763893574315   | 2.15365753140362   | 2.20162034008266   occ= 0
MO #60  energy= 2.17763893574315   | 2.15365753140363   | 2.20162034008267   occ= 0
MO #61  energy= 2.17763893574315   | 2.15365753140362   | 2.20162034008266   occ= 0
MO #62  energy= 2.17763893574315   | 2.15365753140363   | 2.20162034008267   occ= 0
MO #63  energy= 2.17763893574315   | 2.15365753140363   | 2.20162034008266   occ= 0
MO #64  energy= 2.61259883882696   | 2.56071338025431   | 2.66448430509608   occ= 0
MO #65  energy= 3.10929468555932   | 3.02604658912438   | 3.19254282045272   occ= 0
MO #66  energy= 3.10929468555933   | 3.02604658912438   | 3.19254282045272   occ= 0
MO #67  energy= 3.10929468555939   | 3.02604658912444   | 3.19254282045279   occ= 0
MO #68  energy= 3.10929468555939   | 3.02604658912444   | 3.1925428204528    occ= 0
MO #69  energy= 3.10929468555939   | 3.02604658912444   | 3.19254282045279   occ= 0
MO #70  energy= 4.21500857879961   | 4.1603266855185    | 4.26969047208073   occ= 0
MO #71  energy= 4.21500857879961   | 4.1603266855185    | 4.26969047208073   occ= 0
MO #72  energy= 4.21500857879961   | 4.1603266855185    | 4.26969047208072   occ= 0
MO #73  energy= 4.76160157216288   | 4.66333366591391   | 4.85986947841186   occ= 0
MO #74  energy= 4.76160157216289   | 4.66333366591392   | 4.85986947841188   occ= 0
MO #75  energy= 4.76160157216289   | 4.66333366591391   | 4.85986947841187   occ= 0
MO #76  energy= 4.7616015721629    | 4.66333366591392   | 4.85986947841188   occ= 0
MO #77  energy= 4.7616015721629    | 4.66333366591392   | 4.85986947841188   occ= 0
MO #78  energy= 4.7616015721629    | 4.66333366591393   | 4.85986947841188   occ= 0
MO #79  energy= 4.76160157216291   | 4.66333366591392   | 4.85986947841188   occ= 0
MO #80  energy= 6.1842490980923    | 6.1550212314956    | 6.21347696468902   occ= 0
MO #81  energy= 6.18424909809231   | 6.15502123149559   | 6.21347696468902   occ= 0
MO #82  energy= 6.18424909809231   | 6.15502123149561   | 6.21347696468903   occ= 0
MO #83  energy= 6.18424909809231   | 6.1550212314956    | 6.21347696468902   occ= 0
MO #84  energy= 6.18424909809231   | 6.15502123149559   | 6.21347696468902   occ= 0
MO #85  energy= 6.18424909809231   | 6.1550212314956    | 6.21347696468902   occ= 0
MO #86  energy= 6.18424909809231   | 6.15502123149561   | 6.21347696468903   occ= 0
MO #87  energy= 6.18424909809231   | 6.15502123149559   | 6.21347696468902   occ= 0
MO #88  energy= 6.18424909809231   | 6.1550212314956    | 6.21347696468902   occ= 0
MO #89  energy= 6.18424909809232   | 6.15502123149561   | 6.21347696468904   occ= 0
MO #90  energy= 6.18424909809232   | 6.15502123149561   | 6.21347696468903   occ= 0
MO #91  energy= 6.42814751782361   | 6.37497699671414   | 6.48131803893309   occ= 0
MO #92  energy= 6.42814751782361   | 6.37497699671415   | 6.48131803893309   occ= 0
MO #93  energy= 6.42814751782361   | 6.37497699671414   | 6.48131803893309   occ= 0
MO #94  energy= 6.42814751782361   | 6.37497699671416   | 6.4813180389331    occ= 0
MO #95  energy= 6.42814751782362   | 6.37497699671414   | 6.48131803893308   occ= 0
MO #96  energy= 6.42814751782362   | 6.37497699671414   | 6.48131803893308   occ= 0
MO #97  energy= 6.42814751782362   | 6.37497699671415   | 6.4813180389331    occ= 0
MO #98  energy= 6.42814751782362   | 6.37497699671414   | 6.48131803893309   occ= 0
MO #99  energy= 6.42814751782363   | 6.37497699671416   | 6.48131803893311   occ= 0
MO #100 energy= 8.63520343332296   | 8.57209259794555   | 8.69831426666368   occ= 0
MO #101 energy= 8.63520343332296   | 8.57209259794555   | 8.69831426666369   occ= 0
MO #102 energy= 8.63520343332298   | 8.57209259794555   | 8.69831426666368   occ= 0
MO #103 energy= 8.63520343332306   | 8.57209259794566   | 8.69831426666379   occ= 0
MO #104 energy= 8.63520343332307   | 8.57209259794567   | 8.69831426666379   occ= 0
MO #105 energy= 9.2817955228073    | 9.22515533415852   | 9.33843571037769   occ= 0
MO #106 energy= 12.5313167824066   | 12.447556114251    | 12.6150774505621   occ= 0
MO #107 energy= 12.5313167824066   | 12.447556114251    | 12.6150774505622   occ= 0
MO #108 energy= 12.5313167824066   | 12.447556114251    | 12.6150774505621   occ= 0
MO #109 energy= 12.5313167824066   | 12.447556114251    | 12.6150774505621   occ= 0
MO #110 energy= 12.5313167824066   | 12.447556114251    | 12.6150774505621   occ= 0
MO #111 energy= 12.5313167824066   | 12.447556114251    | 12.6150774505621   occ= 0
MO #112 energy= 12.5313167824066   | 12.447556114251    | 12.6150774505621   occ= 0
MO #113 energy= 12.8995391053064   | 12.8442542533445   | 12.9548239572684   occ= 0
MO #114 energy= 12.8995391053064   | 12.8442542533445   | 12.9548239572683   occ= 0
MO #115 energy= 12.8995391053065   | 12.8442542533446   | 12.9548239572685   occ= 0
MO #116 energy= 17.2016782002565   | 17.1378831680707   | 17.2654732324423   occ= 0
MO #117 energy= 17.2016782002565   | 17.1378831680706   | 17.2654732324423   occ= 0
MO #118 energy= 17.2016782002565   | 17.1378831680706   | 17.2654732324423   occ= 0
MO #119 energy= 17.2016782002565   | 17.1378831680707   | 17.2654732324424   occ= 0
MO #120 energy= 17.2016782002565   | 17.1378831680707   | 17.2654732324423   occ= 0
MO #121 energy= 17.2016782002565   | 17.1378831680706   | 17.2654732324423   occ= 0
MO #122 energy= 17.2016782002565   | 17.1378831680707   | 17.2654732324423   occ= 0
MO #123 energy= 17.2016782002565   | 17.1378831680707   | 17.2654732324423   occ= 0
MO #124 energy= 17.2016782002565   | 17.1378831680706   | 17.2654732324423   occ= 0
MO #125 energy= 18.128553331693    | 18.0819648605904   | 18.1751418027956   occ= 0
MO #126 energy= 18.128553331693    | 18.0819648605904   | 18.1751418027956   occ= 0
MO #127 energy= 18.128553331693    | 18.0819648605904   | 18.1751418027956   occ= 0
MO #128 energy= 18.128553331693    | 18.0819648605904   | 18.1751418027956   occ= 0
MO #129 energy= 18.128553331693    | 18.0819648605905   | 18.1751418027957   occ= 0
MO #130 energy= 18.128553331693    | 18.0819648605905   | 18.1751418027956   occ= 0
MO #131 energy= 18.128553331693    | 18.0819648605904   | 18.1751418027956   occ= 0
MO #132 energy= 18.128553331693    | 18.0819648605904   | 18.1751418027956   occ= 0
MO #133 energy= 18.128553331693    | 18.0819648605905   | 18.1751418027957   occ= 0
MO #134 energy= 18.128553331693    | 18.0819648605905   | 18.1751418027956   occ= 0
MO #135 energy= 18.128553331693    | 18.0819648605905   | 18.1751418027957   occ= 0
 ** Mulliken pop on meta-lowdin orthogonal AOs  **
 ** Mulliken pop  **
pop of  0Cr 3s        1.99996
pop of  0Cr 4s        0.99858
pop of  0Cr 5s        0.00076
pop of  0Cr 6s        0.00032
pop of  0Cr 7s        0.00001
pop of  0Cr 8s        0.00017
pop of  0Cr 9s        0.00020
pop of  0Cr 3px       1.99988
pop of  0Cr 3py       1.99988
pop of  0Cr 3pz       1.99988
pop of  0Cr 4px       0.00008
pop of  0Cr 4py       0.00008
pop of  0Cr 4pz       0.00008
pop of  0Cr 5px       0.00002
pop of  0Cr 5py       0.00002
pop of  0Cr 5pz       0.00002
pop of  0Cr 6px       0.00001
pop of  0Cr 6py       0.00001
pop of  0Cr 6pz       0.00001
pop of  0Cr 7px       0.00000
pop of  0Cr 7py       0.00000
pop of  0Cr 7pz       0.00000
pop of  0Cr 8px       0.00000
pop of  0Cr 8py       0.00000
pop of  0Cr 8pz       0.00000
pop of  0Cr 9px       0.00000
pop of  0Cr 9py       0.00000
pop of  0Cr 9pz       0.00000
pop of  0Cr 3dxy      0.99806
pop of  0Cr 3dyz      0.99806
pop of  0Cr 3dz^2     0.99806
pop of  0Cr 3dxz      0.99806
pop of  0Cr 3dx2-y2    0.99806
pop of  0Cr 4dxy      0.00152
pop of  0Cr 4dyz      0.00152
pop of  0Cr 4dz^2     0.00152
pop of  0Cr 4dxz      0.00152
pop of  0Cr 4dx2-y2    0.00152
pop of  0Cr 5dxy      0.00014
pop of  0Cr 5dyz      0.00014
pop of  0Cr 5dz^2     0.00014
pop of  0Cr 5dxz      0.00014
pop of  0Cr 5dx2-y2    0.00014
pop of  0Cr 6dxy      0.00001
pop of  0Cr 6dyz      0.00001
pop of  0Cr 6dz^2     0.00001
pop of  0Cr 6dxz      0.00001
pop of  0Cr 6dx2-y2    0.00001
pop of  0Cr 7dxy      0.00026
pop of  0Cr 7dyz      0.00026
pop of  0Cr 7dz^2     0.00026
pop of  0Cr 7dxz      0.00026
pop of  0Cr 7dx2-y2    0.00026
pop of  0Cr 8dxy      0.00002
pop of  0Cr 8dyz      0.00002
pop of  0Cr 8dz^2     0.00002
pop of  0Cr 8dxz      0.00002
pop of  0Cr 8dx2-y2    0.00002
pop of  0Cr 4fy^3     0.00000
pop of  0Cr 4fxyz     0.00000
pop of  0Cr 4fyz^2    0.00000
pop of  0Cr 4fz^3     0.00000
pop of  0Cr 4fxz^2    0.00000
pop of  0Cr 4fzx^2    0.00000
pop of  0Cr 4fx^3     0.00000
pop of  0Cr 5fy^3     0.00000
pop of  0Cr 5fxyz     0.00000
pop of  0Cr 5fyz^2    0.00000
pop of  0Cr 5fz^3     0.00000
pop of  0Cr 5fxz^2    0.00000
pop of  0Cr 5fzx^2    0.00000
pop of  0Cr 5fx^3     0.00000
pop of  0Cr 6fy^3     0.00000
pop of  0Cr 6fxyz     0.00000
pop of  0Cr 6fyz^2    0.00000
pop of  0Cr 6fz^3     0.00000
pop of  0Cr 6fxz^2    0.00000
pop of  0Cr 6fzx^2    0.00000
pop of  0Cr 6fx^3     0.00000
pop of  0Cr 7fy^3     0.00000
pop of  0Cr 7fxyz     0.00000
pop of  0Cr 7fyz^2    0.00000
pop of  0Cr 7fz^3     0.00000
pop of  0Cr 7fxz^2    0.00000
pop of  0Cr 7fzx^2    0.00000
pop of  0Cr 7fx^3     0.00000
pop of  0Cr 5g-4      0.00000
pop of  0Cr 5g-3      0.00000
pop of  0Cr 5g-2      0.00000
pop of  0Cr 5g-1      0.00000
pop of  0Cr 5g 0      0.00000
pop of  0Cr 5g 1      0.00000
pop of  0Cr 5g 2      0.00000
pop of  0Cr 5g 3      0.00000
pop of  0Cr 5g 4      0.00000
pop of  0Cr 6g-4      0.00000
pop of  0Cr 6g-3      0.00000
pop of  0Cr 6g-2      0.00000
pop of  0Cr 6g-1      0.00000
pop of  0Cr 6g 0      0.00000
pop of  0Cr 6g 1      0.00000
pop of  0Cr 6g 2      0.00000
pop of  0Cr 6g 3      0.00000
pop of  0Cr 6g 4      0.00000
pop of  0Cr 7g-4      0.00000
pop of  0Cr 7g-3      0.00000
pop of  0Cr 7g-2      0.00000
pop of  0Cr 7g-1      0.00000
pop of  0Cr 7g 0      0.00000
pop of  0Cr 7g 1      0.00000
pop of  0Cr 7g 2      0.00000
pop of  0Cr 7g 3      0.00000
pop of  0Cr 7g 4      0.00000
pop of  0Cr 6h-5      0.00000
pop of  0Cr 6h-4      0.00000
pop of  0Cr 6h-3      0.00000
pop of  0Cr 6h-2      0.00000
pop of  0Cr 6h-1      0.00000
pop of  0Cr 6h 0      0.00000
pop of  0Cr 6h 1      0.00000
pop of  0Cr 6h 2      0.00000
pop of  0Cr 6h 3      0.00000
pop of  0Cr 6h 4      0.00000
pop of  0Cr 6h 5      0.00000
pop of  0Cr 7h-5      0.00000
pop of  0Cr 7h-4      0.00000
pop of  0Cr 7h-3      0.00000
pop of  0Cr 7h-2      0.00000
pop of  0Cr 7h-1      0.00000
pop of  0Cr 7h 0      0.00000
pop of  0Cr 7h 1      0.00000
pop of  0Cr 7h 2      0.00000
pop of  0Cr 7h 3      0.00000
pop of  0Cr 7h 4      0.00000
pop of  0Cr 7h 5      0.00000
 ** Mulliken atomic charges  **
charge of  0Cr =     -0.00000

******** <class 'pyscf.mcscf.mc1step.CASSCF'> flags ********
CAS (6e+0e, 6o), ncore = 4, nvir = 125
max_cycle_macro = 50
max_cycle_micro = 4
conv_tol = 1e-07
conv_tol_grad = None
orbital rotation max_stepsize = 0.02
augmented hessian ah_max_cycle = 30
augmented hessian ah_conv_tol = 1e-12
augmented hessian ah_linear dependence = 1e-14
augmented hessian ah_level shift = 0
augmented hessian ah_start_tol = 2.5
augmented hessian ah_start_cycle = 3
augmented hessian ah_grad_trust_region = 3
kf_trust_region = 3
kf_interval = 4
ci_response_space = 4
ci_grad_trust_region = 3
with_dep4 0
natorb = False
canonicalization = True
chkfile = ./scratch/145506/tmprcVMAh
max_memory 4000 MB (current use 839 MB)
internal_rotation = False

******** SHCI flags ********
executable             = /home/bamu3429/softwares/dice/Dice
mpiprefix              = mpirun -np 28
scratchDirectory       = ./scratch/145506
integralFile           = ./FCIDUMP
configFile             = ./input.dat
outputFile             = ./output.dat
maxIter                = 6
sweep_iter             = []
sweep_epsilon          = []
nPTiter                = 0
Stochastic             = True
fullrestart            = False
restart                = False
num_thrds              = 12
memory                 = None

CASCI E = -80.7994429142259  S^2 = 12.0000000
Set conv_tol_grad to 0.000316228
macro iter 1 (21 JK  4 micro), CASSCF E = -81.5756342071707  dE = -0.77619129  S^2 = 12.0000000
               |grad[o]|= 2.63  |grad[c]|= None  |ddm|=0.191
macro iter 2 (21 JK  4 micro), CASSCF E = -83.2064399288248  dE = -1.6308057  S^2 = 12.0000000
               |grad[o]|= 2.45  |grad[c]|= None  |ddm|=0.022
macro iter 3 (21 JK  4 micro), CASSCF E = -83.6953974051445  dE = -0.48895748  S^2 = 12.0000000
               |grad[o]|= 2.41  |grad[c]|= None  |ddm|=0.00707
macro iter 4 (21 JK  4 micro), CASSCF E = -84.6081040260267  dE = -0.91270662  S^2 = 12.0000000
               |grad[o]|=  2.2  |grad[c]|= None  |ddm|=0.00414
macro iter 5 (21 JK  4 micro), CASSCF E = -85.0349080178195  dE = -0.42680399  S^2 = 12.0000000
               |grad[o]|= 1.73  |grad[c]|= None  |ddm|=0.00188
macro iter 6 (21 JK  4 micro), CASSCF E = -85.4172474995872  dE = -0.38233948  S^2 = 12.0000000
               |grad[o]|= 1.37  |grad[c]|= None  |ddm|=0.00277
macro iter 7 (21 JK  4 micro), CASSCF E = -85.7406966790606  dE = -0.32344918  S^2 = 12.0000000
               |grad[o]|= 0.98  |grad[c]|= None  |ddm|=0.00241
macro iter 8 (21 JK  4 micro), CASSCF E = -85.9038157168533  dE = -0.16311904  S^2 = 12.0000000
               |grad[o]|=0.593  |grad[c]|= None  |ddm|=0.00503
macro iter 9 (21 JK  4 micro), CASSCF E = -85.9843720493084  dE = -0.080556332  S^2 = 12.0000000
               |grad[o]|=0.364  |grad[c]|= None  |ddm|=0.00887
macro iter 10 (21 JK  4 micro), CASSCF E = -86.0140077979346  dE = -0.029635749  S^2 = 12.0000000
               |grad[o]|=0.203  |grad[c]|= None  |ddm|=0.0137
macro iter 11 (21 JK  4 micro), CASSCF E = -86.0235180824293  dE = -0.0095102845  S^2 = 12.0000000
               |grad[o]|=0.106  |grad[c]|= None  |ddm|=0.00855
macro iter 12 (21 JK  4 micro), CASSCF E = -86.0240765452702  dE = -0.00055846284  S^2 = 12.0000000
               |grad[o]|= 0.04  |grad[c]|= None  |ddm|=0.00261
macro iter 13 (21 JK  4 micro), CASSCF E = -86.0245811801581  dE = -0.00050463489  S^2 = 12.0000000
               |grad[o]|=0.0417  |grad[c]|= None  |ddm|=0.00522
macro iter 14 (21 JK  4 micro), CASSCF E = -86.0245985561583  dE = -1.7376e-05  S^2 = 12.0000000
               |grad[o]|=0.0138  |grad[c]|= None  |ddm|=0.00188
macro iter 15 (21 JK  4 micro), CASSCF E = -86.0246273814462  dE = -2.8825288e-05  S^2 = 12.0000000
               |grad[o]|=0.0194  |grad[c]|= None  |ddm|=0.00209
macro iter 16 (17 JK  4 micro), CASSCF E = -86.0246783908239  dE = -5.1009378e-05  S^2 = 12.0000000
               |grad[o]|=0.0144  |grad[c]|= None  |ddm|=0.000216
macro iter 17 (17 JK  4 micro), CASSCF E = -86.0246864412424  dE = -8.0504186e-06  S^2 = 12.0000000
               |grad[o]|=0.00525  |grad[c]|= None  |ddm|=0.000739
macro iter 18 (17 JK  4 micro), CASSCF E = -86.0246875905004  dE = -1.149258e-06  S^2 = 12.0000000
               |grad[o]|=0.00275  |grad[c]|= None  |ddm|=0.000242
macro iter 19 (7 JK  2 micro), CASSCF E = -86.0246855111177  dE = 2.0793827e-06  S^2 = 12.0000000
               |grad[o]|=0.00205  |grad[c]|= None  |ddm|=0.000558
macro iter 20 (12 JK  3 micro), CASSCF E = -86.0246846120466  dE = 8.9907113e-07  S^2 = 12.0000000
               |grad[o]|=0.00128  |grad[c]|= None  |ddm|=    0
macro iter 21 (22 JK  4 micro), CASSCF E = -86.0246837463233  dE = 8.6572322e-07  S^2 = 12.0000000
               |grad[o]|=0.00137  |grad[c]|= None  |ddm|=    0
macro iter 22 (25 JK  4 micro), CASSCF E = -86.0246837593462  dE = -1.302287e-08  S^2 = 12.0000000
               |grad[o]|=0.00135  |grad[c]|= None  |ddm|=    0
macro iter 23 (12 JK  3 micro), CASSCF E = -86.0246838942094  dE = -1.348632e-07  S^2 = 12.0000000
               |grad[o]|=0.00133  |grad[c]|= None  |ddm|=0.0032
macro iter 24 (17 JK  4 micro), CASSCF E = -86.024688626164  dE = -4.7319546e-06  S^2 = 12.0000000
               |grad[o]|=0.00127  |grad[c]|= None  |ddm|=0.00425
macro iter 25 (17 JK  4 micro), CASSCF E = -86.0246899678698  dE = -1.3417058e-06  S^2 = 12.0000000
               |grad[o]|=0.00113  |grad[c]|= None  |ddm|=0.00124
macro iter 26 (17 JK  4 micro), CASSCF E = -86.0246902966087  dE = -3.2873884e-07  S^2 = 12.0000000
               |grad[o]|=0.000985  |grad[c]|= None  |ddm|=0.00032
macro iter 27 (7 JK  2 micro), CASSCF E = -86.024685037676  dE = 5.2589326e-06  S^2 = 12.0000000
               |grad[o]|=0.000897  |grad[c]|= None  |ddm|=0.000107
macro iter 28 (17 JK  4 micro), CASSCF E = -86.024690048271  dE = -5.010595e-06  S^2 = 12.0000000
               |grad[o]|=0.00119  |grad[c]|= None  |ddm|=0.00386
macro iter 29 (17 JK  4 micro), CASSCF E = -86.0246898117845  dE = 2.3648657e-07  S^2 = 12.0000000
               |grad[o]|=0.000737  |grad[c]|= None  |ddm|=0.000365
macro iter 30 (17 JK  4 micro), CASSCF E = -86.0246898226698  dE = -1.0885358e-08  S^2 = 12.0000000
               |grad[o]|=0.000876  |grad[c]|= None  |ddm|=    0
macro iter 31 (17 JK  4 micro), CASSCF E = -86.0246897956399  dE = 2.7029955e-08  S^2 = 12.0000000
               |grad[o]|=0.000799  |grad[c]|= None  |ddm|=0.000152
macro iter 32 (7 JK  2 micro), CASSCF E = -86.0246899316548  dE = -1.3601499e-07  S^2 = 12.0000000
               |grad[o]|=0.000667  |grad[c]|= None  |ddm|=0.000135
macro iter 33 (7 JK  2 micro), CASSCF E = -86.0246900124333  dE = -8.0778477e-08  S^2 = 12.0000000
               |grad[o]|=0.000572  |grad[c]|= None  |ddm|=5.38e-05
macro iter 34 (17 JK  4 micro), CASSCF E = -86.0246899384231  dE = 7.4010245e-08  S^2 = 12.0000000
               |grad[o]|=0.000543  |grad[c]|= None  |ddm|=0.000217
macro iter 35 (7 JK  2 micro), CASSCF E = -86.0246900274571  dE = -8.9034017e-08  S^2 = 12.0000000
               |grad[o]|=0.000614  |grad[c]|= None  |ddm|=6.49e-05
macro iter 36 (17 JK  4 micro), CASSCF E = -86.0246902780222  dE = -2.5056508e-07  S^2 = 12.0000000
               |grad[o]|=0.000547  |grad[c]|= None  |ddm|=0.000998
macro iter 37 (17 JK  4 micro), CASSCF E = -86.0246888999354  dE = 1.3780868e-06  S^2 = 12.0000000
               |grad[o]|=0.000613  |grad[c]|= None  |ddm|=4.6e-05
macro iter 38 (17 JK  4 micro), CASSCF E = -86.0246915270017  dE = -2.6270663e-06  S^2 = 12.0000000
               |grad[o]|=0.000606  |grad[c]|= None  |ddm|=0.00137
macro iter 39 (17 JK  4 micro), CASSCF E = -86.0246886244075  dE = 2.9025941e-06  S^2 = 12.0000000
               |grad[o]|=0.000848  |grad[c]|= None  |ddm|=0.000369
macro iter 40 (12 JK  3 micro), CASSCF E = -86.0246914626069  dE = -2.8381994e-06  S^2 = 12.0000000
               |grad[o]|=0.000952  |grad[c]|= None  |ddm|=0.00139
macro iter 41 (17 JK  4 micro), CASSCF E = -86.0246902775789  dE = 1.185028e-06  S^2 = 12.0000000
               |grad[o]|=0.000927  |grad[c]|= None  |ddm|=0.00015
macro iter 42 (17 JK  4 micro), CASSCF E = -86.0246902383259  dE = 3.9252939e-08  S^2 = 12.0000000
               |grad[o]|=0.000921  |grad[c]|= None  |ddm|=0.000101
macro iter 43 (7 JK  2 micro), CASSCF E = -86.024690372812  dE = -1.3448606e-07  S^2 = 12.0000000
               |grad[o]|=0.000884  |grad[c]|= None  |ddm|=6.77e-05
macro iter 44 (17 JK  4 micro), CASSCF E = -86.0246914628528  dE = -1.0900408e-06  S^2 = 12.0000000
               |grad[o]|=0.000861  |grad[c]|= None  |ddm|=0.00124
macro iter 45 (17 JK  4 micro), CASSCF E = -86.0246916821135  dE = -2.192607e-07  S^2 = 12.0000000
               |grad[o]|=0.000819  |grad[c]|= None  |ddm|=0.000417
macro iter 46 (7 JK  2 micro), CASSCF E = -86.0246917709781  dE = -8.8864539e-08  S^2 = 12.0000000
               |grad[o]|=0.00102  |grad[c]|= None  |ddm|=5.58e-05
macro iter 47 (17 JK  4 micro), CASSCF E = -86.024691427995  dE = 3.4298304e-07  S^2 = 12.0000000
               |grad[o]|=0.000905  |grad[c]|= None  |ddm|=5.06e-05
macro iter 48 (21 JK  4 micro), CASSCF E = -86.0246913619722  dE = 6.6022835e-08  S^2 = 12.0000000
               |grad[o]|=0.000904  |grad[c]|= None  |ddm|=5.86e-05
macro iter 49 (17 JK  4 micro), CASSCF E = -86.0246901036398  dE = 1.2583324e-06  S^2 = 12.0000000
               |grad[o]|=0.000777  |grad[c]|= None  |ddm|=7.06e-05
macro iter 50 (17 JK  4 micro), CASSCF E = -86.0246901047467  dE = -1.1068835e-09  S^2 = 12.0000000
               |grad[o]|=0.000842  |grad[c]|= None  |ddm|=8.5e-05
1-step CASSCF not converged, 50 macro (842 JK 183 micro) steps
CASSCF canonicalization
CASSCF energy = -86.0246901047467


--------------------------------------------------
                 ICMPSPT CALCULATION              
--------------------------------------------------

Perturbation type: MRLCC
With fully internally contracted scheme
With third order correction

Preparing necessary RDMs
......production of RDMs took       6.91 sec
Reading binary 4RDM from DICE
......reading the RDM took          1.05 sec

(GOOD) Trace 4RDM:    360.0 =    6*    5*    4*    3
(GOOD) Trace 3RDM:    120.0 =    6*    5*    4
(GOOD) Trace 2RDM:     30.0 =    6*    5
(GOOD) Trace 1RDM:      6.0 =    6

Producing the integrals
......production of INT took     397.83 sec

Energy_core =  -63.0045682195
Energy      =  -86.0246901047

WARNING: Have to use natural orbitals from CAASCF
         offdiagonal elements: 1.3279331283

Basic ingredients written to int/
......savings of INGREDIENTS took     189.58 sec

Second-order:
perturber CCVV --        -0.198881986
perturber CCAV --        -0.001499129
perturber ACVV --        -0.261491852
perturber CCAA --        -0.000014146
terminate called after throwing an instance of 'std::runtime_error'
  what():  No convergence!
/bin/sh: line 1: 110601 Aborted                 /projects/bamu3429/softwares/icpt/icpt MRLCC_AAVV.inp > MRLCC_AAVV.out
Traceback (most recent call last):
  File "mrpt.py", line 57, in <module>
    do_dm4=True)
  File "/projects/bamu3429/softwares/pyscf_uptodate/pyscf/icmpspt/icmpspt.py", line 1375, in icmpspt
    cumulantE4=cumulantE4, df=df, no_handcoded_E3=no_handcoded_E3)
  File "/projects/bamu3429/softwares/pyscf_uptodate/pyscf/icmpspt/icmpspt.py", line 689, in executeMRLCC
    output = check_call("%s  %s  %s > %s"%(mpiprefix, executable, infile, outfile), shell=True)
  File "/curc/sw/python/2.7.11/lib/python2.7/subprocess.py", line 540, in check_call
    raise CalledProcessError(retcode, cmd)
subprocess.CalledProcessError: Command '  /projects/bamu3429/softwares/icpt/icpt  MRLCC_AAVV.inp > MRLCC_AAVV.out' returned non-zero exit status 134
