 &FCI NORB=9 ,NELEC=10 ,MS2=4,
  ORBSYM=1,1,1,1,1,1,1,1,1,
  ISYM=1,
 &END
  6.292027737675e-01    1  1  1  1
  3.971468998151e-10    2  1  1  1
  2.924022646582e-02    2  1  2  1
  5.861276969358e-01    2  2  1  1
  1.904527753498e-10    2  2  2  1
  6.782172991976e-01    2  2  2  2
  7.652752730196e-11    3  1  1  1
  7.802270045089e-11    3  1  2  2
  2.877170292929e-02    3  1  3  1
  6.136857278681e-12    3  2  2  1
 -6.966639609630e-12    3  2  3  1
  3.006605346531e-02    3  2  3  2
  5.806967267291e-01    3  3  1  1
  2.492485341950e-10    3  3  2  1
  6.022924747486e-01    3  3  2  2
  8.574962858348e-11    3  3  3  1
  6.494707674306e-01    3  3  3  3
 -4.851934758729e-03    4  1  1  1
 -4.140378529978e-11    4  1  2  1
 -1.834689234132e-02    4  1  2  2
 -1.056514264661e-11    4  1  3  1
 -1.340633196666e-02    4  1  3  3
  2.059811447348e-02    4  1  4  1
 -2.215369677063e-09    4  2  1  1
 -2.298608067198e-03    4  2  2  1
 -3.503706925819e-09    4  2  2  2
 -4.244256597883e-12    4  2  3  2
 -2.771954368015e-09    4  2  3  3
  6.423315054826e-10    4  2  4  1
  2.332048088113e-03    4  2  4  2
 -6.549852382006e-11    4  3  1  1
 -6.660880041396e-11    4  3  2  2
 -4.696370003207e-03    4  3  3  1
 -2.782609095327e-10    4  3  3  2
 -7.493380496676e-11    4  3  3  3
 -2.679520624922e-12    4  3  4  1
  4.747915062896e-03    4  3  4  3
  3.847540698719e-01    4  4  1  1
  6.854047349914e-10    4  4  2  1
  3.129211041940e-01    4  4  2  2
 -2.537287961396e-12    4  4  3  1
  3.398277322094e-01    4  4  3  3
  6.654278673512e-02    4  4  4  1
  2.003359459265e-09    4  4  4  2
 -4.271722352021e-11    4  4  4  3
  6.427892934751e-01    4  4  4  4
  1.304646536235e-11    5  1  2  1
  6.945834949673e-11    5  1  3  1
 -1.153481974713e-04    5  1  3  2
 -6.772735758128e-12    5  1  4  2
 -2.570879189124e-11    5  1  4  3
  8.334639255412e-03    5  1  5  1
  1.298353943352e-10    5  2  1  1
  2.583739811312e-10    5  2  2  2
 -1.545188047909e-03    5  2  3  1
  2.275488222513e-11    5  2  3  2
  1.853306623063e-10    5  2  3  3
 -6.403977393101e-11    5  2  4  1
  1.769574647513e-03    5  2  4  3
 -2.528628800495e-10    5  2  4  4
 -1.317507881734e-10    5  2  5  1
  3.112711737633e-03    5  2  5  2
  5.612508806400e-10    5  3  1  1
 -1.727923280893e-03    5  3  2  1
  7.565921312757e-10    5  3  2  2
  1.840375353156e-11    5  3  3  2
  8.984572878605e-10    5  3  3  3
 -2.444824615749e-10    5  3  4  1
 -8.684167995857e-04    5  3  4  2
 -9.542603392165e-10    5  3  4  4
 -1.852342917681e-12    5  3  5  1
  4.374943744982e-03    5  3  5  3
 -1.068486189623e-11    5  4  2  1
 -2.287419812740e-11    5  4  3  1
  1.676156719513e-03    5  4  3  2
 -1.588280087046e-11    5  4  4  2
 -6.001551378528e-11    5  4  4  3
  5.736541578362e-03    5  4  5  1
 -1.735682493596e-11    5  4  5  2
  4.800042705002e-12    5  4  5  3
  1.884414264458e-02    5  4  5  4
  4.033488590902e-01    5  5  1  1
  5.469073624453e-10    5  5  2  1
  3.264378305231e-01    5  5  2  2
  8.273796233747e-12    5  5  3  1
  3.507663478830e-01    5  5  3  3
  6.680747367287e-02    5  5  4  1
  2.195309183512e-09    5  5  4  2
 -5.937866971415e-11    5  5  4  3
  6.687008814511e-01    5  5  4  4
 -3.309713399229e-10    5  5  5  2
 -1.217665027602e-09    5  5  5  3
  7.786607128791e-01    5  5  5  5
  1.450312925566e-02    6  1  1  1
  6.944689102391e-10    6  1  2  1
 -1.815302422937e-04    6  1  2  2
 -1.432343385207e-11    6  1  3  1
  4.354631302892e-03    6  1  3  3
  1.075048487765e-02    6  1  4  1
  1.490787591833e-10    6  1  4  2
 -2.274417803705e-12    6  1  4  3
  5.829786244730e-02    6  1  4  4
 -5.700008593551e-11    6  1  5  2
  1.614780118213e-10    6  1  5  3
  7.189405785414e-02    6  1  5  5
  1.824814169871e-02    6  1  6  1
  5.658333630945e-09    6  2  1  1
 -2.884235791321e-03    6  2  2  1
  1.298049348618e-08    6  2  2  2
 -1.459489394651e-11    6  2  3  2
  9.166770045133e-09    6  2  3  3
 -3.520014961842e-09    6  2  4  1
 -4.096644825819e-04    6  2  4  2
 -1.483555270342e-08    6  2  4  4
 -1.428785747744e-12    6  2  5  1
  1.489504041387e-03    6  2  5  3
  2.685163666234e-12    6  2  5  4
 -1.778693925966e-08    6  2  5  5
 -3.432969439995e-09    6  2  6  1
  2.984379977810e-03    6  2  6  2
 -1.454152418325e-10    6  3  1  1
 -1.673047812015e-10    6  3  2  2
 -8.113613733126e-04    6  3  3  1
  9.767641098202e-10    6  3  3  2
 -1.839726720704e-10    6  3  3  3
  1.526377940058e-11    6  3  4  1
 -5.674035468869e-04    6  3  4  3
  8.784550998064e-12    6  3  4  4
 -4.161192668957e-10    6  3  5  1
 -5.557521647982e-04    6  3  5  2
 -4.466838144531e-10    6  3  5  4
  2.758609904202e-11    6  3  5  5
  7.225936710533e-12    6  3  6  1
  2.570884178010e-03    6  3  6  3
 -3.762580960872e-02    6  4  1  1
 -7.366215151593e-10    6  4  2  1
 -2.500535735923e-02    6  4  2  2
  2.515238915938e-12    6  4  3  1
 -2.822762089960e-02    6  4  3  3
 -1.151612347492e-02    6  4  4  1
 -1.423421565302e-09    6  4  4  2
  1.289683990897e-11    6  4  4  3
 -1.019076361784e-01    6  4  4  4
  6.115818024272e-11    6  4  5  2
  1.084783002752e-09    6  4  5  3
 -1.203526268356e-01    6  4  5  5
 -1.501016001132e-02    6  4  6  1
  4.217624055701e-09    6  4  6  2
 -2.649054679084e-12    6  4  6  3
  4.354687773140e-02    6  4  6  4
 -1.749060414453e-12    6  5  2  1
  5.439101816953e-10    6  5  3  1
  2.055446267833e-03    6  5  3  2
  3.491759614071e-12    6  5  4  2
 -5.812662205480e-10    6  5  4  3
  6.119508717701e-03    6  5  5  1
 -1.296839789940e-09    6  5  5  2
 -6.251740721411e-12    6  5  5  3
  2.095001486786e-03    6  5  5  4
 -1.129541020485e-11    6  5  6  2
 -9.640008109074e-12    6  5  6  3
  1.770003828157e-02    6  5  6  5
  3.352131582769e-01    6  6  1  1
  4.432008134341e-10    6  6  2  1
  2.831394852703e-01    6  6  2  2
 -2.549307937763e-12    6  6  3  1
  2.950978660176e-01    6  6  3  3
  3.945588149726e-02    6  6  4  1
  2.436234467537e-09    6  6  4  2
 -2.712946497591e-11    6  6  4  3
  4.996880052672e-01    6  6  4  4
 -2.048964132314e-10    6  6  5  2
 -1.429162826970e-09    6  6  5  3
  5.523012634275e-01    6  6  5  5
  5.182691916694e-02    6  6  6  1
 -1.351117851830e-08    6  6  6  2
  2.330839576997e-11    6  6  6  3
 -7.619868857044e-02    6  6  6  4
  4.641687400912e-01    6  6  6  6
  4.060031746988e-09    7  1  1  1
 -3.537558095101e-03    7  1  2  1
  1.470677116649e-09    7  1  2  2
  2.094900657238e-09    7  1  3  3
  1.741605863955e-09    7  1  4  1
  2.301226758388e-03    7  1  4  2
  1.048075406739e-08    7  1  4  4
 -1.861665066072e-03    7  1  5  3
  5.090353843340e-12    7  1  5  4
  1.304311483217e-08    7  1  5  5
  1.757634261151e-09    7  1  6  1
 -4.663646333360e-04    7  1  6  2
 -3.404936476402e-09    7  1  6  4
  1.325539974722e-11    7  1  6  5
  9.481271927248e-09    7  1  6  6
  7.954829303940e-03    7  1  7  1
 -4.089438889176e-02    7  2  1  1
 -3.138070863768e-10    7  2  2  1
 -8.333042737956e-02    7  2  2  2
 -2.079646800675e-11    7  2  3  1
 -6.040533732050e-02    7  2  3  3
  2.056160331731e-02    7  2  4  1
  1.549950976766e-09    7  2  4  2
  8.538197040879e-12    7  2  4  3
  7.813283412209e-02    7  2  4  4
 -1.378294862861e-10    7  2  5  2
 -3.110725769687e-10    7  2  5  3
  9.248209048524e-02    7  2  5  5
  1.915023231332e-02    7  2  6  1
 -7.810497989196e-09    7  2  6  2
  4.396118926216e-11    7  2  6  3
 -1.852955970900e-02    7  2  6  4
  6.593160628437e-02    7  2  6  6
  3.153378252591e-09    7  2  7  1
  4.756193082549e-02    7  2  7  2
 -6.078594970350e-12    7  3  2  1
 -1.176119257235e-10    7  3  3  1
 -5.788151292326e-03    7  3  3  2
 -2.273998595234e-12    7  3  4  2
 -5.745670266231e-11    7  3  4  3
  2.031408848336e-03    7  3  5  1
 -2.132284376298e-10    7  3  5  2
 -1.299319733765e-12    7  3  5  3
  2.296347560724e-03    7  3  5  4
  5.430189972109e-12    7  3  6  2
 -4.344276732597e-10    7  3  6  3
  2.712410190749e-03    7  3  6  5
 -1.318434974213e-12    7  3  7  1
  5.005684963713e-03    7  3  7  3
 -7.489895539538e-09    7  4  1  1
  4.095017498942e-03    7  4  2  1
 -4.207195874186e-09    7  4  2  2
  5.522017361140e-12    7  4  3  2
 -5.268909980817e-09    7  4  3  3
 -2.585176545179e-09    7  4  4  1
  5.479451443632e-03    7  4  4  2
 -2.106731730731e-08    7  4  4  4
  6.390361688013e-12    7  4  5  1
 -4.361580340174e-03    7  4  5  3
 -1.697649736154e-11    7  4  5  4
 -2.466260801632e-08    7  4  5  5
 -3.820525723307e-09    7  4  6  1
 -2.211166793778e-03    7  4  6  2
  3.361778611816e-09    7  4  6  4
  2.176916899069e-11    7  4  6  5
 -1.279462045116e-08    7  4  6  6
  3.579654036140e-03    7  4  7  1
 -4.044276391400e-09    7  4  7  2
 -8.161954374590e-12    7  4  7  3
  2.765640386065e-02    7  4  7  4
 -6.470853623015e-11    7  5  1  1
 -9.251315282072e-11    7  5  2  2
 -2.960137753856e-03    7  5  3  1
  2.768623394425e-10    7  5  3  2
 -5.963150238354e-11    7  5  3  3
  2.064414199096e-11    7  5  4  1
  2.984760882611e-03    7  5  4  3
  1.050774232131e-10    7  5  4  4
  1.075999450041e-09    7  5  5  1
  6.333571989447e-03    7  5  5  2
  3.063545007019e-10    7  5  5  4
  7.022169363346e-11    7  5  5  5
 -2.918638600600e-03    7  5  6  3
 -4.342657536696e-11    7  5  6  4
 -2.210258600288e-09    7  5  6  5
  3.718051779547e-11    7  5  6  6
  1.793567327293e-11    7  5  7  2
 -1.005170097917e-10    7  5  7  3
  2.883493795198e-02    7  5  7  5
 -1.837052561286e-08    7  6  1  1
  6.972468585774e-05    7  6  2  1
 -1.438731857523e-08    7  6  2  2
  6.956369408187e-12    7  6  3  2
 -1.457471357090e-08    7  6  3  3
 -4.025088213618e-09    7  6  4  1
 -1.935264515045e-03    7  6  4  2
 -2.567194756220e-08    7  6  4  4
  1.157361525501e-11    7  6  5  1
  1.803370276778e-03    7  6  5  3
  1.840043777513e-11    7  6  5  4
 -2.958700637145e-08    7  6  5  5
 -4.765098973850e-09    7  6  6  1
  2.650860400089e-03    7  6  6  2
  6.664418087733e-09    7  6  6  4
 -2.263918680015e-08    7  6  6  6
  9.414163292615e-05    7  6  7  1
 -5.093940379659e-09    7  6  7  2
  1.399649156136e-11    7  6  7  3
 -7.337298727564e-03    7  6  7  4
  1.639625072865e-02    7  6  7  6
  4.306509848193e-01    7  7  1  1
  6.521924533827e-10    7  7  2  1
  3.600221793639e-01    7  7  2  2
 -8.035475483209e-12    7  7  3  1
  3.722359378385e-01    7  7  3  3
  5.947810011860e-02    7  7  4  1
  1.325765491251e-09    7  7  4  2
 -3.569261637994e-11    7  7  4  3
  6.292364701040e-01    7  7  4  4
 -2.524100541012e-10    7  7  5  2
 -1.618676577038e-10    7  7  5  3
  7.012953931244e-01    7  7  5  5
  7.542096965913e-02    7  7  6  1
 -1.680860921390e-08    7  7  6  2
 -9.562784376888e-12    7  7  6  3
 -1.027679251038e-01    7  7  6  4
  5.447954184482e-01    7  7  6  6
  1.384939958935e-08    7  7  7  1
  9.261460859281e-02    7  7  7  2
 -2.421418348565e-08    7  7  7  4
  6.006584237281e-11    7  7  7  5
 -3.287143715741e-08    7  7  7  6
  7.426184613049e-01    7  7  7  7
  1.440433581587e-01    8  1  1  1
 -3.289676929438e-10    8  1  2  1
  1.665454621349e-01    8  1  2  2
  3.504984133940e-11    8  1  3  1
  1.509723849197e-01    8  1  3  3
 -3.859991973441e-02    8  1  4  1
 -2.519697720851e-09    8  1  4  2
 -1.674266417673e-11    8  1  4  3
 -1.055467220954e-01    8  1  4  4
  2.197687095454e-10    8  1  5  2
  8.675959268358e-10    8  1  5  3
 -1.222574481830e-01    8  1  5  5
 -3.039290943212e-02    8  1  6  1
  1.214583625308e-08    8  1  6  2
 -9.145743451128e-11    8  1  6  3
  2.296920958792e-02    8  1  6  4
 -8.754195131851e-02    8  1  6  6
 -4.645111003892e-09    8  1  7  1
 -7.108166331809e-02    8  1  7  2
  5.028108460726e-09    8  1  7  4
 -4.626111367110e-11    8  1  7  5
  4.655237966875e-09    8  1  7  6
 -1.084458351824e-01    8  1  7  7
  1.547449008283e-01    8  1  8  1
 -8.933872073548e-10    8  2  1  1
  1.421238948586e-02    8  2  2  1
 -8.367675350439e-10    8  2  2  2
 -1.000871875501e-11    8  2  3  2
 -7.800349431650e-10    8  2  3  3
 -3.768955417631e-10    8  2  4  1
 -1.521294198729e-03    8  2  4  2
 -7.897945314418e-10    8  2  4  4
  1.323041541899e-11    8  2  5  1
 -7.828234585385e-04    8  2  5  3
  2.006786581923e-12    8  2  5  4
 -7.585077340605e-10    8  2  5  5
  3.125252897135e-10    8  2  6  1
 -2.291304499951e-03    8  2  6  2
  1.223728229053e-10    8  2  6  4
  1.973358792163e-12    8  2  6  5
 -5.430869450686e-10    8  2  6  6
 -3.176732449943e-03    8  2  7  1
 -3.929536549337e-10    8  2  7  2
  2.619095469828e-12    8  2  7  3
 -4.773813802455e-04    8  2  7  4
 -2.647385798011e-04    8  2  7  6
 -1.399582682830e-09    8  2  7  7
  8.391987899748e-11    8  2  8  1
  1.257666694445e-02    8  2  8  2
 -1.105601302390e-10    8  3  1  1
 -1.439187776849e-10    8  3  2  2
  1.291359764421e-02    8  3  3  1
 -7.001784856984e-11    8  3  3  2
 -1.528603617166e-10    8  3  3  3
  1.678500301605e-11    8  3  4  1
 -2.296905597194e-03    8  3  4  3
  3.070656729853e-11    8  3  4  4
  7.689259132500e-11    8  3  5  1
 -4.240889097845e-04    8  3  5  2
 -1.522435801041e-11    8  3  5  4
  2.246588932510e-11    8  3  5  5
  2.450637215640e-12    8  3  6  1
 -1.654973194553e-03    8  3  6  3
 -1.174257288480e-12    8  3  6  4
 -4.368663951628e-10    8  3  6  5
  2.991162201752e-11    8  3  6  6
  4.203326466755e-11    8  3  7  2
 -1.836873182909e-10    8  3  7  3
  2.156282116281e-03    8  3  7  5
  3.194559016103e-11    8  3  7  7
 -9.234791767135e-11    8  3  8  1
  1.241944213217e-02    8  3  8  3
 -6.706635291425e-02    8  4  1  1
 -4.373615544783e-10    8  4  2  1
 -5.099490625723e-02    8  4  2  2
 -7.199045729028e-12    8  4  3  1
 -5.447634675554e-02    8  4  3  3
 -1.819725277130e-02    8  4  4  1
  2.669293048389e-11    8  4  4  2
  1.630348693152e-11    8  4  4  3
 -7.590332145353e-02    8  4  4  4
  1.812651280467e-11    8  4  5  2
  1.027910112245e-10    8  4  5  3
 -7.562861995635e-02    8  4  5  5
 -9.693349566252e-03    8  4  6  1
  1.184835767486e-09    8  4  6  2
  1.790929183105e-11    8  4  6  3
  1.149535542041e-02    8  4  6  4
 -4.248544291419e-02    8  4  6  6
 -1.832151020938e-09    8  4  7  1
 -5.786283027852e-03    8  4  7  2
  2.448541200058e-09    8  4  7  4
  7.412995035735e-12    8  4  7  5
  7.270676224766e-09    8  4  7  6
 -7.951594196945e-02    8  4  7  7
  2.213384764692e-03    8  4  8  1
  3.046058596974e-10    8  4  8  2
  8.380589418983e-12    8  4  8  3
  3.550731543657e-02    8  4  8  4
  1.934192197822e-11    8  5  2  1
  9.992592047638e-11    8  5  3  1
 -8.730374008866e-04    8  5  3  2
  2.906580804039e-12    8  5  4  2
 -1.906616062888e-11    8  5  4  3
 -1.134049128487e-02    8  5  5  1
  1.663137261653e-10    8  5  5  2
  4.052986658818e-12    8  5  5  3
 -6.315410505173e-03    8  5  5  4
  2.220397390201e-12    8  5  6  2
  5.631419645660e-10    8  5  6  3
 -8.747632121632e-03    8  5  6  5
 -1.245221111424e-11    8  5  7  1
 -2.731208109013e-03    8  5  7  3
 -1.667369840772e-09    8  5  7  5
 -1.654066744332e-11    8  5  7  6
 -1.316243711919e-11    8  5  8  3
  1.718441031970e-02    8  5  8  5
 -8.542006650783e-02    8  6  1  1
  8.229626376486e-10    8  6  2  1
 -6.253678494841e-02    8  6  2  2
 -1.343655276139e-11    8  6  3  1
 -6.628370008538e-02    8  6  3  3
 -1.479428255179e-02    8  6  4  1
 -2.094442747787e-10    8  6  4  2
  2.012463607695e-11    8  6  4  3
 -1.168017982338e-01    8  6  4  4
  6.132875001671e-11    8  6  5  2
 -1.459751429998e-10    8  6  5  3
 -1.410873349781e-01    8  6  5  5
 -2.921630941612e-02    8  6  6  1
  4.159741672788e-09    8  6  6  2
  1.738702584346e-11    8  6  6  3
  3.225164914267e-02    8  6  6  4
 -9.637933127899e-02    8  6  6  6
 -4.354835325909e-09    8  6  7  1
 -2.018589056525e-02    8  6  7  2
  7.934124021459e-09    8  6  7  4
  1.035545185738e-11    8  6  7  5
  1.044321450787e-08    8  6  7  6
 -1.499166799088e-01    8  6  7  7
  2.022173442861e-02    8  6  8  1
  4.355656890281e-10    8  6  8  2
  4.941960738341e-12    8  6  8  3
  2.758929878592e-02    8  6  8  4
  6.274139239459e-02    8  6  8  6
 -1.456415506251e-08    8  7  1  1
 -6.333759655021e-03    8  7  2  1
 -1.014395007374e-08    8  7  2  2
  1.134157173836e-12    8  7  3  2
 -1.088200024409e-08    8  7  3  3
 -2.980290635752e-09    8  7  4  1
 -9.101531172979e-04    8  7  4  2
 -2.255854053824e-08    8  7  4  4
 -1.303946001500e-11    8  7  5  1
  1.699549945981e-03    8  7  5  3
  2.049324369834e-12    8  7  5  4
 -2.738693247248e-08    8  7  5  5
 -4.618621109616e-09    8  7  6  1
 -1.714875227216e-04    8  7  6  2
  7.576257522159e-09    8  7  6  4
 -1.838844821944e-11    8  7  6  5
 -1.897925692665e-08    8  7  6  6
 -5.485566050179e-03    8  7  7  1
 -4.619233842403e-09    8  7  7  2
  2.949469478679e-12    8  7  7  3
 -6.887201122150e-03    8  7  7  4
  3.539210725623e-06    8  7  7  6
 -2.907440704483e-08    8  7  7  7
  5.293258998304e-09    8  7  8  1
 -5.428579587271e-04    8  7  8  2
  5.094990155564e-09    8  7  8  4
  7.128077657553e-12    8  7  8  5
  9.231445974716e-09    8  7  8  6
  1.345040449408e-02    8  7  8  7
  4.685155911913e-01    8  8  1  1
  5.859806234371e-10    8  8  2  1
  4.083233013774e-01    8  8  2  2
  1.060433006807e-11    8  8  3  1
  4.182122830241e-01    8  8  3  3
  3.009267218838e-02    8  8  4  1
  3.808473543241e-10    8  8  4  2
 -4.111432332975e-11    8  8  4  3
  4.866487019042e-01    8  8  4  4
 -8.889773420459e-11    8  8  5  2
 -3.201598316851e-10    8  8  5  3
  5.210048567180e-01    8  8  5  5
  4.166098642668e-02    8  8  6  1
 -6.259309892962e-09    8  8  6  2
 -4.452285137074e-11    8  8  6  3
 -5.774071012510e-02    8  8  6  4
  4.244723733610e-01    8  8  6  6
  8.442299708742e-09    8  8  7  1
  2.918693888903e-02    8  8  7  2
 -1.189269310029e-08    8  8  7  4
 -2.440802498028e-11    8  8  7  5
 -2.264010731933e-08    8  8  7  6
  5.381942129541e-01    8  8  7  7
 -9.090455516946e-03    8  8  8  1
 -9.492021723480e-10    8  8  8  2
 -2.460810147038e-11    8  8  8  3
 -6.699483355313e-02    8  8  8  4
 -1.034754600282e-01    8  8  8  6
 -1.950972018794e-08    8  8  8  7
  4.876518740646e-01    8  8  8  8
  3.429153689521e-11    9  1  1  1
  3.619452534538e-11    9  1  2  2
  7.654825851774e-03    9  1  3  1
 -4.488846709837e-11    9  1  3  2
  3.679360641609e-11    9  1  3  3
 -8.883178184120e-12    9  1  4  1
 -1.060069094634e-04    9  1  4  3
 -1.960381237476e-11    9  1  4  4
 -3.952648941884e-12    9  1  5  1
  1.663889965869e-03    9  1  5  2
 -2.614699085390e-11    9  1  5  4
 -3.265545479081e-11    9  1  5  5
 -1.001608721905e-11    9  1  6  1
 -2.051201864311e-03    9  1  6  3
  4.812594548684e-12    9  1  6  4
 -4.548862034554e-10    9  1  6  5
 -1.615542444660e-11    9  1  6  6
 -1.239775636867e-11    9  1  7  2
 -3.185879345811e-10    9  1  7  3
  2.271867519608e-03    9  1  7  5
 -1.251778965882e-11    9  1  7  7
  2.819896243926e-11    9  1  8  1
  7.585058180993e-03    9  1  8  3
  1.575962007933e-11    9  1  8  5
  2.065927859814e-12    9  1  8  6
 -3.340081836130e-12    9  1  8  8
  1.100642677103e-02    9  1  9  1
  2.034147775831e-12    9  2  2  1
  1.335398000457e-11    9  2  3  1
  1.200839186950e-02    9  2  3  2
 -1.628990518867e-12    9  2  4  2
 -7.353885657279e-11    9  2  4  3
 -1.256827106752e-03    9  2  5  1
  2.075055702581e-10    9  2  5  2
  1.665274873492e-11    9  2  5  3
 -1.645170127159e-03    9  2  5  4
 -4.208756485106e-12    9  2  6  2
  8.867901945379e-10    9  2  6  3
 -1.935222186152e-03    9  2  6  5
 -3.559487103558e-12    9  2  7  1
 -5.629710660667e-03    9  2  7  3
 -6.418485260033e-12    9  2  7  4
 -1.158365850239e-10    9  2  7  5
 -3.837266045802e-12    9  2  8  2
  1.835864112683e-03    9  2  8  5
  6.223935917735e-12    9  2  8  7
  1.409877691853e-10    9  2  9  1
  8.244530854683e-03    9  2  9  2
  8.869388801904e-02    9  3  1  1
 -2.219661932181e-10    9  3  2  1
  1.318793816534e-01    9  3  2  2
  3.927429247427e-11    9  3  3  1
  1.384604790590e-01    9  3  3  3
 -3.486678384330e-02    9  3  4  1
 -2.105679720929e-09    9  3  4  2
 -1.485742679031e-11    9  3  4  3
 -1.157153027508e-01    9  3  4  4
  1.998732575427e-10    9  3  5  2
  8.231732884348e-10    9  3  5  3
 -1.295268009022e-01    9  3  5  5
 -2.631585298350e-02    9  3  6  1
  1.108825406482e-08    9  3  6  2
 -8.543586311320e-11    9  3  6  3
  2.518396474365e-02    9  3  6  4
 -8.528426078281e-02    9  3  6  6
 -4.028185293245e-09    9  3  7  1
 -6.461334396170e-02    9  3  7  2
  5.500302777373e-09    9  3  7  4
 -5.439305846115e-11    9  3  7  5
  5.418649066420e-09    9  3  7  6
 -1.108615707895e-01    9  3  7  7
  1.176574225929e-01    9  3  8  1
  1.662190548082e-10    9  3  8  2
 -8.149641997425e-11    9  3  8  3
  9.047798238662e-03    9  3  8  4
  2.287537641745e-02    9  3  8  6
  5.344436673283e-09    9  3  8  7
 -2.501889698301e-02    9  3  8  8
  2.697268464918e-11    9  3  9  1
  1.246679397176e-01    9  3  9  3
 -2.756033789149e-11    9  4  1  1
 -2.464533720033e-11    9  4  2  2
  3.357726147810e-04    9  4  3  1
 -1.045581230253e-10    9  4  3  2
 -2.690850819907e-11    9  4  3  3
 -1.597101659638e-12    9  4  4  1
 -6.805745753002e-03    9  4  4  3
 -9.906019129251e-12    9  4  4  4
 -2.199278834167e-11    9  4  5  1
 -2.036133753223e-03    9  4  5  2
 -1.301660928351e-11    9  4  5  4
  2.057404185528e-11    9  4  5  5
  2.404906820181e-03    9  4  6  3
  1.969237067457e-12    9  4  6  4
  1.329810439342e-09    9  4  6  5
 -6.257811170803e-12    9  4  6  6
  1.449381070773e-12    9  4  7  2
  4.662931342945e-10    9  4  7  3
 -6.998434711314e-03    9  4  7  5
 -4.187948827013e-11    9  4  7  7
 -9.192473818734e-12    9  4  8  1
 -1.570156595627e-03    9  4  8  3
  7.615401938686e-12    9  4  8  4
  6.818171870763e-11    9  4  8  5
  6.730386216958e-12    9  4  8  6
 -1.777401208705e-11    9  4  8  8
 -6.339227877019e-04    9  4  9  1
 -9.803021287765e-11    9  4  9  2
 -1.005815652431e-11    9  4  9  3
  1.675820515126e-02    9  4  9  4
  3.029076300253e-10    9  5  1  1
  2.901056483086e-03    9  5  2  1
  5.852428361767e-10    9  5  2  2
  2.016876567461e-11    9  5  3  2
  4.758661143269e-10    9  5  3  3
 -1.364498822200e-11    9  5  4  1
  2.407610819823e-03    9  5  4  2
 -7.653158614268e-11    9  5  4  4
  6.755152533020e-12    9  5  5  1
 -9.479699770793e-03    9  5  5  3
 -1.378764029146e-11    9  5  5  4
 -1.007037476085e-10    9  5  5  5
 -4.886633098784e-10    9  5  6  1
 -1.844982353110e-03    9  5  6  2
 -2.324215394749e-09    9  5  6  4
  2.604659646213e-11    9  5  6  5
  1.778806369194e-09    9  5  6  6
  2.337826203204e-03    9  5  7  1
 -1.759987515838e-10    9  5  7  2
 -9.858610795778e-12    9  5  7  3
  1.219875578399e-02    9  5  7  4
 -4.828787955884e-03    9  5  7  6
 -2.011432633868e-09    9  5  7  7
  1.630673548272e-10    9  5  8  1
 -2.837348027823e-04    9  5  8  2
 -1.479873254921e-10    9  5  8  4
 -4.926057834325e-12    9  5  8  5
  9.297514206282e-10    9  5  8  6
 -4.637928972301e-03    9  5  8  7
  2.208138360208e-10    9  5  8  8
 -1.152036239679e-11    9  5  9  2
  1.903396694406e-10    9  5  9  3
  2.533256663356e-02    9  5  9  5
 -6.013403827055e-11    9  6  1  1
 -6.989066240617e-11    9  6  2  2
 -3.362614312750e-03    9  6  3  1
  1.155493081637e-09    9  6  3  2
 -7.692887286746e-11    9  6  3  3
  8.497665982755e-12    9  6  4  1
  3.005561783395e-03    9  6  4  3
  3.490592481241e-12    9  6  4  4
  1.272512148646e-09    9  6  5  1
  2.151805705993e-03    9  6  5  2
  1.201820452748e-09    9  6  5  4
 -3.710059139372e-11    9  6  5  5
  2.420543944596e-12    9  6  6  1
 -5.820172603285e-03    9  6  6  3
 -3.231061621130e-10    9  6  6  5
  2.587837390799e-12    9  6  6  6
  1.933114548755e-11    9  6  7  2
  3.235050318185e-10    9  6  7  3
  9.059452310743e-03    9  6  7  5
  2.749275764301e-11    9  6  7  7
 -3.556963047531e-11    9  6  8  1
  1.782279950840e-03    9  6  8  3
  5.325006081527e-12    9  6  8  4
 -1.650614732864e-09    9  6  8  5
  8.176798494481e-12    9  6  8  6
 -2.364490007619e-11    9  6  8  8
  2.808558977978e-03    9  6  9  1
 -4.782089437135e-10    9  6  9  2
 -3.582515619011e-11    9  6  9  3
 -7.381881693023e-03    9  6  9  4
  1.672971181891e-02    9  6  9  6
  6.242597975416e-12    9  7  2  1
 -4.341879837608e-10    9  7  3  1
 -7.118049279602e-03    9  7  3  2
  7.292450724139e-12    9  7  4  2
  5.770801356337e-10    9  7  4  3
 -6.529802293596e-03    9  7  5  1
  5.846180915700e-10    9  7  5  2
 -6.965298347843e-12    9  7  5  3
 -6.349201091060e-03    9  7  5  4
  1.317709067378e-12    9  7  6  2
  3.500228409750e-10    9  7  6  3
 -7.461454059069e-03    9  7  6  5
 -9.477848738253e-12    9  7  7  1
 -7.386050364678e-03    9  7  7  3
  1.117396240280e-11    9  7  7  4
  3.847881029660e-10    9  7  7  5
 -2.397546156546e-11    9  7  7  6
  4.564202591159e-10    9  7  8  3
  8.270408315953e-03    9  7  8  5
  6.821682620039e-12    9  7  8  7
  5.426619696742e-10    9  7  9  1
  3.548786585340e-03    9  7  9  2
 -1.382005679444e-09    9  7  9  4
  5.055552780386e-12    9  7  9  5
 -1.520141188362e-09    9  7  9  6
  2.450404418250e-02    9  7  9  7
 -3.478725567552e-11    9  8  1  1
 -4.927960984562e-11    9  8  2  2
  1.168640059964e-02    9  8  3  1
  3.644841242407e-11    9  8  3  2
 -5.532056921885e-11    9  8  3  3
  6.494738850200e-12    9  8  4  1
 -2.370617734167e-03    9  8  4  3
  1.768667836054e-11    9  8  4  4
  4.958557067461e-11    9  8  5  1
 -1.406786157517e-03    9  8  5  2
  5.144483518311e-11    9  8  5  4
  5.230534672660e-11    9  8  5  5
  2.970914353885e-12    9  8  6  1
  1.876526436894e-03    9  8  6  3
 -2.545979346802e-12    9  8  6  4
  1.464692721057e-09    9  8  6  5
  1.787360375502e-11    9  8  6  6
  1.860916212294e-11    9  8  7  2
  4.408026778092e-10    9  8  7  3
 -7.223705152326e-03    9  8  7  5
 -8.546205803344e-12    9  8  7  7
 -3.805241661144e-11    9  8  8  1
  1.230367664469e-03    9  8  8  3
  1.354618391086e-12    9  8  8  4
  3.717985146302e-11    9  8  8  5
 -4.602798178372e-12    9  8  8  6
 -7.241820071334e-12    9  8  8  8
 -2.206760229761e-03    9  8  9  1
 -9.808801622131e-11    9  8  9  2
 -3.361040916160e-11    9  8  9  3
  1.643239415957e-03    9  8  9  4
 -8.391667485086e-03    9  8  9  6
 -1.620150667946e-09    9  8  9  7
  1.560068684757e-02    9  8  9  8
  4.763681865077e-01    9  9  1  1
  8.372597107281e-10    9  9  2  1
  4.135059080572e-01    9  9  2  2
  2.498961276911e-11    9  9  3  1
  4.522931130114e-01    9  9  3  3
  5.661467454089e-02    9  9  4  1
  9.498270266486e-10    9  9  4  2
 -5.970145745938e-11    9  9  4  3
  6.082411450753e-01    9  9  4  4
 -1.778968203841e-10    9  9  5  2
 -5.737345803139e-10    9  9  5  3
  6.527474259550e-01    9  9  5  5
  5.743058986813e-02    9  9  6  1
 -1.090770261549e-08    9  9  6  2
 -4.462843547228e-11    9  9  6  3
 -8.866348328300e-02    9  9  6  4
  4.925049602695e-01    9  9  6  6
  1.077210240159e-08    9  9  7  1
  5.530385738550e-02    9  9  7  2
 -1.843371246376e-08    9  9  7  4
  2.818829413569e-11    9  9  7  5
 -2.993199864296e-08    9  9  7  6
  6.443944778234e-01    9  9  7  7
 -5.510442784177e-02    9  9  8  1
 -1.191486812600e-09    9  9  8  2
 -1.506583446999e-11    9  9  8  3
 -8.990437013900e-02    9  9  8  4
 -1.309735521708e-01    9  9  8  6
 -2.475383957717e-08    9  9  8  7
  5.270789560036e-01    9  9  8  8
 -1.044155024136e-11    9  9  9  1
 -7.455748076864e-02    9  9  9  3
 -1.735649299417e-11    9  9  9  4
  6.407964444214e-11    9  9  9  5
 -2.287210952962e-11    9  9  9  6
  5.661949244467e-12    9  9  9  8
  6.700773193599e-01    9  9  9  9
 -4.813973409552e+00    1  1  0  0
 -4.026521995599e-09    2  1  0  0
 -4.606187846984e+00    2  2  0  0
 -3.704397797193e-10    3  1  0  0
 -4.643410645927e+00    3  3  0  0
 -1.853265913514e-01    4  1  0  0
  6.269585725856e-09    4  2  0  0
  4.749184301177e-10    4  3  0  0
 -4.280644314861e+00    4  4  0  0
  1.774605557445e-10    5  2  0  0
 -5.689726906151e-10    5  3  0  0
 -4.584796443587e+00    5  5  0  0
 -2.943050013349e-01    6  1  0  0
  2.641256683936e-08    6  2  0  0
  7.843320415454e-10    6  3  0  0
  5.129064533481e-01    6  4  0  0
 -3.724310848083e+00    6  6  0  0
 -5.776863393121e-08    7  1  0  0
 -8.029997033697e-02    7  2  0  0
  1.026318131445e-07    7  4  0  0
 -3.245970876700e-12    7  5  0  0
  1.704866873763e-07    7  6  0  0
 -4.601785890510e+00    7  7  0  0
 -2.976975102816e-01    8  1  0  0
  9.265719178560e-09    8  2  0  0
  6.599861960854e-10    8  3  0  0
  4.933413536759e-01    8  4  0  0
  7.771512215557e-01    8  6  0  0
  1.469224872115e-07    8  7  0  0
 -4.060558665593e+00    8  8  0  0
 -7.991082702122e-11    9  1  0  0
 -7.671768727800e-02    9  3  0  0
  1.420113107052e-10    9  4  0  0
 -1.368696667442e-09    9  5  0  0
  2.871388338083e-10    9  6  0  0
  1.891696702145e-10    9  8  0  0
 -4.665212666161e+00    9  9  0  0
    -77.035071504405   0  0  0  0
