#INFO: **** input file is /projects/bamu3429/BENCHMARK/fresh_atoms/MRPT/vdz/monoxides/CrO/mrpt.py ****
import json
from pyscf import gto,scf,mcscf, fci, lo, ci, cc
from pyscf.scf import ROHF, UHF,ROKS
import numpy as np
import pandas as pd

# THIS IS WERE IT STARTS ====================================

df=json.load(open("../../../trail.json"))

spins={'ScO':1, 'TiO':2, 'VO':3, 'CrO':4, 'MnO':5, 'FeO':4, 'CuO':1}

nd={'Sc':(1,0), 'Ti':(2,0), 'V':(3,0), 'Cr':(5,0), 'Mn':(5,0), 'Fe':(5,1), 'Cu':(5,4)}

cas={'Sc':3, 'Ti':4, 'V':5, 'Cr':6, 'Mn':7, 'Fe':8, 'Cu':11}

re={'ScO':1.668, 'TiO':1.623, 'VO':1.591, 'CrO':1.621, 'MnO':1.648, 'FeO':1.616, 'CuO':1.725}

datacsv={}
for nm in ['basis','charge','method','molecule','pseudopotential',
           'totalenergy','totalenergy-stocherr','totalenergy-syserr']:
  datacsv[nm]=[]

basis='vdz'
element='Cr'

mol=gto.Mole()
mol.ecp={}
mol.basis={}
for el in [element,'O']:
  mol.ecp[el]=gto.basis.parse_ecp(df[el]['ecp'])
  mol.basis[el]=gto.basis.parse(df[el][basis])
mol.charge=0
mol.spin=spins[element+'O']
mol.build(atom="%s 0. 0. 0.; O 0. 0. %g"%(element,re[element+'O']),verbose=4)

m=ROHF(mol)
m.level_shift=1000.0
dm=m.from_chk("../../../../HF/monoxides/"+element+basis+"0.chk")
hf=m.kernel(dm)
m.analyze()

from pyscf.shciscf import shci
mc = shci.SHCISCF(m, 9, 4+cas[element])
#mc.fcisolver.conv_tol = 1e-14
mc.fcisolver.mpiprefix="srun -n20"
mc.fcisolver.num_thrds=12
mc.verbose = 4
cas=mc.kernel()[0]
 
from pyscf.icmpspt import icmpspt
pt=icmpspt.icmpspt(mc,rdmM=500, PTM=1000,\
                          pttype="MRLCC",\
                          third_order=True,\
                          fully_ic=True,\
                          do_dm4=True)

datacsv['basis'].append(basis)
datacsv['charge'].append(0)
datacsv['method'].append('MRPT')
datacsv['molecule'].append(element)
datacsv['pseudopotential'].append('trail')
datacsv['totalenergy'].append(cas+pt)
datacsv['totalenergy-stocherr'].append(0.0)
datacsv['totalenergy-syserr'].append(0.0)
pd.DataFrame(datacsv).to_csv(element+".csv",index=False)

#INFO: ******************** input file end ********************


System: ('Linux', 'bnode0302.rc.int.colorado.edu', '3.10.0-514.41.1.el7.x86_64', '#1 SMP Wed Jan 17 10:26:16 EST 2018', 'x86_64', 'x86_64')  Threads 28
Python 2.7.11 (default, Mar 22 2016, 01:42:54) 
[GCC Intel(R) C++ gcc 4.8 mode]
numpy 1.11.1  scipy 0.17.1
Date: Wed Apr 18 13:32:13 2018
PySCF version 1.4.6
PySCF path  /projects/bamu3429/softwares/pyscf_uptodate/pyscf
GIT ORIG_HEAD f3591ef22170896a4cdc2aadaa6f5da388ffcadb
GIT HEAD      ref: refs/heads/master
GIT master branch  1847583fb1d2472321833d3c71c8b7008e5fabf5

[INPUT] VERBOSE 4
[INPUT] num atoms = 2
[INPUT] num electrons = 20
[INPUT] charge = 0
[INPUT] spin (= nelec alpha-beta = 2S) = 4
[INPUT] symmetry False subgroup None
[INPUT]  1 Cr     0.000000000000   0.000000000000   0.000000000000 AA    0.000000000000   0.000000000000   0.000000000000 Bohr
[INPUT]  2 O      0.000000000000   0.000000000000   1.621000000000 AA    0.000000000000   0.000000000000   3.063246047920 Bohr
[INPUT] ---------------- BASIS SET ---------------- 
[INPUT] l, kappa, [nprim/nctr], expnt,             c_1 c_2 ...
[INPUT] Cr
[INPUT] 0    0    [12   /1   ]  41.45590127       0.010332
                                22.20089455       -0.091393
                                12.37022616       0.412444
                                7.15443966        -0.722409
                                3.63012556        0.039693
                                1.88942247        0.321055
                                1.04381355        0.652182
                                0.47307333        0.264443
                                0.22628807        -0.008646
                                0.10750747        0.012188
                                0.05101028        -0.00242
                                0.0242372         0.001733
[INPUT] 0    0    [12   /1   ]  41.45590127       -0.001971
                                22.20089455       0.019152
                                12.37022616       -0.094562
                                7.15443966        0.178991
                                3.63012556        -0.015716
                                1.88942247        -0.084882
                                1.04381355        -0.243744
                                0.47307333        -0.214624
                                0.22628807        0.055092
                                0.10750747        0.415903
                                0.05101028        0.543473
                                0.0242372         0.170131
[INPUT] 0    0    [12   /1   ]  41.45590127       -0.005874
                                22.20089455       0.067618
                                12.37022616       -0.389148
                                7.15443966        0.863039
                                3.63012556        -0.192494
                                1.88942247        -1.243222
                                1.04381355        -0.159486
                                0.47307333        0.70074
                                0.22628807        0.796397
                                0.10750747        0.153618
                                0.05101028        -0.585106
                                0.0242372         -0.29462
[INPUT] 0    0    [1    /1   ]  0.0242372            1
[INPUT] 0    0    [1    /1   ]  0.01151614           1
[INPUT] 1    0    [12   /1   ]  28.88080716       -0.002973
                                13.19380569       0.044202
                                7.25722596        -0.232476
                                4.84342676        0.167654
                                2.76949909        0.179744
                                1.50719356        0.46058
                                0.72516508        0.338218
                                0.36385743        0.097984
                                0.16204617        0.012145
                                0.07447705        -0.000948
                                0.03422994        0.000821
                                0.01573221        -0.00022
[INPUT] 1    0    [12   /1   ]  28.88080716       0.000536
                                13.19380569       -0.009363
                                7.25722596        0.054752
                                4.84342676        -0.042977
                                2.76949909        -0.049244
                                1.50719356        -0.128712
                                0.72516508        -0.11682
                                0.36385743        0.044517
                                0.16204617        0.322192
                                0.07447705        0.482878
                                0.03422994        0.275764
                                0.01573221        0.025472
[INPUT] 1    0    [12   /1   ]  28.88080716       -0.000562
                                13.19380569       0.035351
                                7.25722596        -0.310475
                                4.84342676        0.257585
                                2.76949909        0.754226
                                1.50719356        0.194922
                                0.72516508        -0.904177
                                0.36385743        -0.438274
                                0.16204617        0.529934
                                0.07447705        0.455686
                                0.03422994        0.027191
                                0.01573221        0.005171
[INPUT] 1    0    [1    /1   ]  0.01573221           1
[INPUT] 1    0    [1    /1   ]  0.00723058           1
[INPUT] 2    0    [10   /1   ]  46.50908408       0.000358
                                21.60133229       -0.010512
                                11.03652449       0.11118
                                4.54288797        0.164184
                                2.18180243        0.267436
                                1.04009058        0.310836
                                0.48262909        0.28353
                                0.21570372        0.173079
                                0.10059873        0.057279
                                0.04653409        0.00937
[INPUT] 2    0    [10   /1   ]  46.50908408       0.000574
                                21.60133229       0.006454
                                11.03652449       -0.106748
                                4.54288797        -0.214222
                                2.18180243        -0.409175
                                1.04009058        -0.082468
                                0.48262909        0.284806
                                0.21570372        0.41458
                                0.10059873        0.246257
                                0.04653409        0.05398
[INPUT] 2    0    [1    /1   ]  0.04653409           1
[INPUT] 2    0    [1    /1   ]  0.02152533           1
[INPUT] 3    0    [1    /1   ]  2.094117             1
[INPUT] 3    0    [1    /1   ]  0.9686785            1
[INPUT] O
[INPUT] 0    0    [10   /1   ]  57.663349         -0.002794
                                35.726816         0.023976
                                22.453757         -0.115974
                                14.732301         0.288033
                                9.739917          -0.274786
                                5.042008          -0.083789
                                2.157818          0.063778
                                1.002916          0.410182
                                0.421839          0.504044
                                0.173041          0.172152
[INPUT] 0    0    [1    /1   ]  0.222099             1
[INPUT] 0    0    [1    /1   ]  0.08884              1
[INPUT] 1    0    [10   /1   ]  52.47406          -0.000522
                                32.138432         0.004857
                                19.458579         -0.027749
                                11.839344         0.074258
                                7.91003           0.014369
                                3.670858          0.153479
                                1.53966           0.283685
                                0.647119          0.358201
                                0.267853          0.29559
                                0.107198          0.104889
[INPUT] 1    0    [1    /1   ]  0.252604             1
[INPUT] 1    0    [1    /1   ]  0.101042             1
[INPUT] 2    0    [1    /1   ]  1.223113             1
[INPUT] 2    0    [1    /1   ]  0.489245             1
nuclear repulsion = 27.4218912506354
number of shells = 24
number of NR pGTOs = 334
number of NR cGTOs = 76
basis = {'Cr': [[0, [41.45590127, 0.010332], [22.20089455, -0.091393], [12.37022616, 0.412444], [7.15443966, -0.722409], [3.63012556, 0.039693], [1.88942247, 0.321055], [1.04381355, 0.652182], [0.47307333, 0.264443], [0.22628807, -0.008646], [0.10750747, 0.012188], [0.05101028, -0.00242], [0.0242372, 0.001733]], [0, [41.45590127, -0.001971], [22.20089455, 0.019152], [12.37022616, -0.094562], [7.15443966, 0.178991], [3.63012556, -0.015716], [1.88942247, -0.084882], [1.04381355, -0.243744], [0.47307333, -0.214624], [0.22628807, 0.055092], [0.10750747, 0.415903], [0.05101028, 0.543473], [0.0242372, 0.170131]], [0, [41.45590127, -0.005874], [22.20089455, 0.067618], [12.37022616, -0.389148], [7.15443966, 0.863039], [3.63012556, -0.192494], [1.88942247, -1.243222], [1.04381355, -0.159486], [0.47307333, 0.70074], [0.22628807, 0.796397], [0.10750747, 0.153618], [0.05101028, -0.585106], [0.0242372, -0.29462]], [0, [0.0242372, 1.0]], [0, [0.01151614, 1.0]], [1, [28.88080716, -0.002973], [13.19380569, 0.044202], [7.25722596, -0.232476], [4.84342676, 0.167654], [2.76949909, 0.179744], [1.50719356, 0.46058], [0.72516508, 0.338218], [0.36385743, 0.097984], [0.16204617, 0.012145], [0.07447705, -0.000948], [0.03422994, 0.000821], [0.01573221, -0.00022]], [1, [28.88080716, 0.000536], [13.19380569, -0.009363], [7.25722596, 0.054752], [4.84342676, -0.042977], [2.76949909, -0.049244], [1.50719356, -0.128712], [0.72516508, -0.11682], [0.36385743, 0.044517], [0.16204617, 0.322192], [0.07447705, 0.482878], [0.03422994, 0.275764], [0.01573221, 0.025472]], [1, [28.88080716, -0.000562], [13.19380569, 0.035351], [7.25722596, -0.310475], [4.84342676, 0.257585], [2.76949909, 0.754226], [1.50719356, 0.194922], [0.72516508, -0.904177], [0.36385743, -0.438274], [0.16204617, 0.529934], [0.07447705, 0.455686], [0.03422994, 0.027191], [0.01573221, 0.005171]], [1, [0.01573221, 1.0]], [1, [0.00723058, 1.0]], [2, [46.50908408, 0.000358], [21.60133229, -0.010512], [11.03652449, 0.11118], [4.54288797, 0.164184], [2.18180243, 0.267436], [1.04009058, 0.310836], [0.48262909, 0.28353], [0.21570372, 0.173079], [0.10059873, 0.057279], [0.04653409, 0.00937]], [2, [46.50908408, 0.000574], [21.60133229, 0.006454], [11.03652449, -0.106748], [4.54288797, -0.214222], [2.18180243, -0.409175], [1.04009058, -0.082468], [0.48262909, 0.284806], [0.21570372, 0.41458], [0.10059873, 0.246257], [0.04653409, 0.05398]], [2, [0.04653409, 1.0]], [2, [0.02152533, 1.0]], [3, [2.094117, 1.0]], [3, [0.9686785, 1.0]]], 'O': [[0, [57.663349, -0.002794], [35.726816, 0.023976], [22.453757, -0.115974], [14.732301, 0.288033], [9.739917, -0.274786], [5.042008, -0.083789], [2.157818, 0.063778], [1.002916, 0.410182], [0.421839, 0.504044], [0.173041, 0.172152]], [0, [0.222099, 1.0]], [0, [0.08884, 1.0]], [1, [52.47406, -0.000522], [32.138432, 0.004857], [19.458579, -0.027749], [11.839344, 0.074258], [7.91003, 0.014369], [3.670858, 0.153479], [1.53966, 0.283685], [0.647119, 0.358201], [0.267853, 0.29559], [0.107198, 0.104889]], [1, [0.252604, 1.0]], [1, [0.101042, 1.0]], [2, [1.223113, 1.0]], [2, [0.489245, 1.0]]]}
ecp = {'Cr': [10, [[-1, [[], [[13.07675203, 14.0]], [[15.15807582, 1258.1555038], [4.62785686, -98.60998187], [15.41136599, -6552.46055066], [15.38690637, 5353.09061557]], [[5.24897308, 183.07452839]]]], [0, [[], [], [[9.77680844, -91901.2080948], [9.95980111, 96320.14803227], [8.62275214, 3928.3135917], [12.29288144, -10977.62459544], [18.41316592, -1741.60409682], [16.38541961, 4413.26493033]], []]], [1, [[], [], [[12.00099996, -22156.17142851], [11.46524435, 21551.07876111], [16.23852226, 3703.78784703], [18.43861108, -1424.18632323], [8.88877941, -1964.93568469], [7.52644784, 317.50498882]], []]], [2, [[], [], [[11.1066837, -5435.29666496], [8.49801115, 7350.69608766], [12.28065533, 2443.80334995], [8.1885354, -5401.76770998], [14.34306836, 3881.23075486], [15.24784181, -2855.87137953]], []]]]], 'O': [2, [[-1, [[], [[10.27717748, 6.0]], [[15.99566749, 1232.50197768], [10.46901775, -696.47008301], [14.6384801, -2654.22657081], [12.57591181, 2101.67732548]], [[7.77739102, 61.66306486]]]], [0, [[], [], [[12.39426073, -656683.37638839], [12.38126171, 657858.57667068], [8.57671033, 511.50098405], [9.89256508, -2579.54665641], [28.05641604, -57.68129584], [17.24753607, 970.30940152]], []]], [1, [[], [], [[14.78918914, -363027.24258186], [14.82014018, 361852.52314043], [22.89622221, -1300.20069256], [8.51331893, -181.96869573], [11.48609758, 2194.87589959], [27.22017524, 451.19906206]], []]]]]}
CPU time:         3.70


******** <class 'pyscf.scf.rohf.ROHF'> flags ********
method = ROHF
initial guess = minao
damping factor = 0
level shift factor = 1000.0
DIIS = <class 'pyscf.scf.diis.CDIIS'>
DIIS start cycle = 1
DIIS space = 8
SCF tol = 1e-09
SCF gradient tol = None
max. SCF cycles = 50
direct_scf = True
direct_scf_tol = 1e-13
chkfile to save SCF result = /rc_scratch/bamu3429/tmpz3pEN9
max_memory 4000 MB (current use 147 MB)
num. doubly occ = 8  num. singly occ = 4
Set gradient conv threshold to 3.16228e-05
init E= -101.838135448185
  HOMO = 499.888524605406  LUMO = 1000.00184197316
cycle= 1 E= -101.838135448185  delta_E= -7.11e-13  |g|= 1.58e-05  |ddm|= 8.43e-08
  HOMO = -0.111475399390493  LUMO = 0.001841973168796
Extra cycle  E= -101.838135448432  delta_E= -2.46e-10  |g|= 7.64e-06  |ddm|= 6.79e-05
converged SCF energy = -101.838135448432
**** MO energy ****
                Roothaan           | alpha              | beta
MO #1   energy= -3.6511841954568   | -3.78631496233494  | -3.51605347584552  occ= 2
MO #2   energy= -2.34318571690078  | -2.46247486133568  | -2.22389656775134  occ= 2
MO #3   energy= -2.3279904621599   | -2.48742839802675  | -2.16855252629305  occ= 2
MO #4   energy= -2.32082411588196  | -2.52855097687784  | -2.11309723479682  occ= 2
MO #5   energy= -1.14706853552909  | -1.15599446691445  | -1.13814266559628  occ= 2
MO #6   energy= -0.44357333750825  | -0.465647216736524 | -0.421501180449021 occ= 2
MO #7   energy= -0.428490280030646 | -0.453326854477433 | -0.403653352098011 occ= 2
MO #8   energy= -0.406035797487648 | -0.414621126697816 | -0.397450468277477 occ= 2
MO #9   energy= -0.141208549928796 | -0.515607609046073 | 0.233189894059631  occ= 1
MO #10  energy= -0.132847931629471 | -0.563240964164271 | 0.297544883171907  occ= 1
MO #11  energy= -0.119337782981554 | -0.399101231674893 | 0.16042488508735   occ= 1
MO #12  energy= -0.111475399390493 | -0.524340982291624 | 0.301389459360957  occ= 1
MO #13  energy= 0.001841973168796  | -0.00497222361558102 | 0.00865656698211475 occ= 0
MO #14  energy= 0.0107469866554923 | 0.00846919423016775 | 0.0130247790808173 occ= 0
MO #15  energy= 0.0128935794279697 | 0.0119975200774567 | 0.0137896249764362 occ= 0
MO #16  energy= 0.0238811624535725 | 0.0188278410746608 | 0.0289347075896413 occ= 0
MO #17  energy= 0.0324716540243282 | 0.0245625891519676 | 0.0403807188966899 occ= 0
MO #18  energy= 0.0332916764982538 | 0.0269392506853142 | 0.0396444445161682 occ= 0
MO #19  energy= 0.042022204565549  | 0.0359439406111094 | 0.0481003544224866 occ= 0
MO #20  energy= 0.0638471308851226 | 0.0634697445123289 | 0.0642245305154733 occ= 0
MO #21  energy= 0.0639171909925145 | 0.0635825831075194 | 0.0642517979263488 occ= 0
MO #22  energy= 0.0734495846859275 | 0.0633582522964777 | 0.0835414629960751 occ= 0
MO #23  energy= 0.0740380751071752 | 0.0717828688995946 | 0.0762932813147554 occ= 0
MO #24  energy= 0.0778047439257951 | 0.076430297241724  | 0.0791791677747176 occ= 0
MO #25  energy= 0.0946957375786493 | 0.0889645410190404 | 0.100427219843936  occ= 0
MO #26  energy= 0.120351601588626  | 0.099222344570912  | 0.14148085860634   occ= 0
MO #27  energy= 0.150650345140945  | 0.141835371977642  | 0.159465660669996  occ= 0
MO #28  energy= 0.161249778911691  | 0.138099344227709  | 0.184400385645082  occ= 0
MO #29  energy= 0.198544907702356  | 0.190227164743907  | 0.206862845748264  occ= 0
MO #30  energy= 0.199447976206726  | 0.191098638779123  | 0.207797473380938  occ= 0
MO #31  energy= 0.21328819677719   | 0.192840483346581  | 0.233735910207798  occ= 0
MO #32  energy= 0.21543268960378   | 0.197196771554095  | 0.233668874790584  occ= 0
MO #33  energy= 0.233487277199428  | 0.213264405307662  | 0.253710148329116  occ= 0
MO #34  energy= 0.238008188687374  | 0.211778631425334  | 0.264237745949414  occ= 0
MO #35  energy= 0.360712454792944  | 0.34946282382488   | 0.37196220993133   occ= 0
MO #36  energy= 0.476711866868845  | 0.474829899819642  | 0.478593833918046  occ= 0
MO #37  energy= 0.47734663195572   | 0.474196990700758  | 0.480496268917791  occ= 0
MO #38  energy= 0.484170865954917  | 0.471448358643238  | 0.496893593211746  occ= 0
MO #39  energy= 1.12473570730045   | 1.0939934707685    | 1.15547800380646   occ= 0
MO #40  energy= 1.27565664492337   | 1.2074970097092    | 1.34381634367788   occ= 0
MO #41  energy= 1.27708240591986   | 1.21000679036371   | 1.34415806207231   occ= 0
MO #42  energy= 1.30922529826239   | 1.24456235626535   | 1.37388841270232   occ= 0
MO #43  energy= 1.35258028671517   | 1.33100754183173   | 1.37415303159861   occ= 0
MO #44  energy= 1.49545258768547   | 1.46837589661278   | 1.52252927480696   occ= 0
MO #45  energy= 1.49567854579308   | 1.46859713948271   | 1.52275996357401   occ= 0
MO #46  energy= 1.53532162875644   | 1.53093887002892   | 1.53970437946377   occ= 0
MO #47  energy= 1.57126059731608   | 1.56382369331907   | 1.57869751366966   occ= 0
MO #48  energy= 1.57447900270378   | 1.5722987394177    | 1.57665926598986   occ= 0
MO #49  energy= 1.69962166683248   | 1.65654992839356   | 1.74269359186781   occ= 0
MO #50  energy= 1.70065400582468   | 1.66513899245496   | 1.73616916452205   occ= 0
MO #51  energy= 1.7061847244979    | 1.69110687130284   | 1.72126257769296   occ= 0
MO #52  energy= 1.92663949399521   | 1.91459891317666   | 1.93868007679318   occ= 0
MO #53  energy= 2.07328277905081   | 2.03661562994517   | 2.10994991248947   occ= 0
MO #54  energy= 2.80323368626746   | 2.7136907665403    | 2.89277660599463   occ= 0
MO #55  energy= 2.8039975021753    | 2.71297839085398   | 2.89501661361621   occ= 0
MO #56  energy= 2.83764156538413   | 2.77093923314759   | 2.90434389762067   occ= 0
MO #57  energy= 2.84259410454153   | 2.78139451529638   | 2.90379369190002   occ= 0
MO #58  energy= 2.84260146498535   | 2.77949123894804   | 2.90571168926356   occ= 0
MO #59  energy= 2.85537820925185   | 2.77647507011953   | 2.93428135213387   occ= 0
MO #60  energy= 2.89132531049994   | 2.85113016790326   | 2.93152044164237   occ= 0
MO #61  energy= 3.17030215864372   | 3.14453891613337   | 3.19606540115407   occ= 0
MO #62  energy= 3.17571439929011   | 3.12008349658452   | 3.23134532340838   occ= 0
MO #63  energy= 4.00480541692352   | 3.96944440705151   | 4.04016642747767   occ= 0
MO #64  energy= 4.25097477516544   | 4.24822722705996   | 4.25372232378017   occ= 0
MO #65  energy= 4.25099216350581   | 4.24823495641745   | 4.25374937140105   occ= 0
MO #66  energy= 4.35841086306857   | 4.35716678154625   | 4.35965494459088   occ= 0
MO #67  energy= 4.36409986770354   | 4.36102729885514   | 4.3671724136638    occ= 0
MO #68  energy= 4.48541512105416   | 4.47466109767366   | 4.49616914090646   occ= 0
MO #69  energy= 7.12257145340603   | 7.10615948595242   | 7.13898342437236   occ= 0
MO #70  energy= 7.4979837839889    | 7.40909194390406   | 7.58687562407374   occ= 0
MO #71  energy= 7.49799282753938   | 7.4090520984106    | 7.58693355673119   occ= 0
MO #72  energy= 7.5144719027103    | 7.4465347838109    | 7.58240902249256   occ= 0
MO #73  energy= 7.51466362893238   | 7.44540342559846   | 7.58392383256734   occ= 0
MO #74  energy= 7.65323649991356   | 7.61328838070359   | 7.69318461912354   occ= 0
MO #75  energy= 7.66400975253799   | 7.59018277240238   | 7.73783673440452   occ= 0
MO #76  energy= 7.76437376442644   | 7.71204547150525   | 7.81670205704668   occ= 0
 ** Mulliken pop on meta-lowdin orthogonal AOs  **
 ** Mulliken pop  **
pop of  0Cr 3s        1.99966
pop of  0Cr 4s        0.70223
pop of  0Cr 5s        0.00843
pop of  0Cr 6s        0.00862
pop of  0Cr 7s        0.00296
pop of  0Cr 3px       1.99947
pop of  0Cr 3py       1.99957
pop of  0Cr 3pz       1.99793
pop of  0Cr 4px       0.01838
pop of  0Cr 4py       0.04098
pop of  0Cr 4pz       0.02129
pop of  0Cr 5px       0.00065
pop of  0Cr 5py       0.00136
pop of  0Cr 5pz       0.00259
pop of  0Cr 6px       0.00024
pop of  0Cr 6py       0.00060
pop of  0Cr 6pz       0.00165
pop of  0Cr 7px       0.00010
pop of  0Cr 7py       0.00024
pop of  0Cr 7pz       0.00023
pop of  0Cr 3dxy      0.99763
pop of  0Cr 3dyz      1.06526
pop of  0Cr 3dz^2     0.81308
pop of  0Cr 3dxz      0.31632
pop of  0Cr 3dx2-y2    0.98561
pop of  0Cr 4dxy      0.00157
pop of  0Cr 4dyz      0.00295
pop of  0Cr 4dz^2     0.00013
pop of  0Cr 4dxz      0.00336
pop of  0Cr 4dx2-y2    0.00167
pop of  0Cr 5dxy      0.00068
pop of  0Cr 5dyz      0.00079
pop of  0Cr 5dz^2     0.00089
pop of  0Cr 5dxz      0.00049
pop of  0Cr 5dx2-y2    0.00070
pop of  0Cr 6dxy      0.00002
pop of  0Cr 6dyz      0.00011
pop of  0Cr 6dz^2     0.00013
pop of  0Cr 6dxz      0.00004
pop of  0Cr 6dx2-y2    0.00002
pop of  0Cr 4fy^3     0.00001
pop of  0Cr 4fxyz     0.00000
pop of  0Cr 4fyz^2    0.00008
pop of  0Cr 4fz^3     0.00014
pop of  0Cr 4fxz^2    0.00007
pop of  0Cr 4fzx^2    0.00001
pop of  0Cr 4fx^3     0.00001
pop of  0Cr 5fy^3     0.00001
pop of  0Cr 5fxyz     0.00007
pop of  0Cr 5fyz^2    0.00047
pop of  0Cr 5fz^3     0.00059
pop of  0Cr 5fxz^2    0.00049
pop of  0Cr 5fzx^2    0.00009
pop of  0Cr 5fx^3     0.00001
pop of  1O 2s        1.87980
pop of  1O 3s        0.00236
pop of  1O 4s        0.00832
pop of  1O 2px       1.64385
pop of  1O 2py       1.86219
pop of  1O 2pz       1.55120
pop of  1O 3px       0.00408
pop of  1O 3py       0.00669
pop of  1O 3pz       0.00148
pop of  1O 4px       0.00587
pop of  1O 4py       0.01291
pop of  1O 4pz       0.00363
pop of  1O 3dxy      0.00000
pop of  1O 3dyz      0.00083
pop of  1O 3dz^2     0.00146
pop of  1O 3dxz      0.00122
pop of  1O 3dx2-y2    0.00001
pop of  1O 4dxy      0.00003
pop of  1O 4dyz      0.00494
pop of  1O 4dz^2     0.00306
pop of  1O 4dxz      0.00535
pop of  1O 4dx2-y2    0.00003
 ** Mulliken atomic charges  **
charge of  0Cr =      0.99931
charge of  1O =     -0.99931

******** <class 'pyscf.mcscf.mc1step.CASSCF'> flags ********
CAS (7e+3e, 9o), ncore = 5, nvir = 62
max_cycle_macro = 50
max_cycle_micro = 4
conv_tol = 1e-07
conv_tol_grad = None
orbital rotation max_stepsize = 0.02
augmented hessian ah_max_cycle = 30
augmented hessian ah_conv_tol = 1e-12
augmented hessian ah_linear dependence = 1e-14
augmented hessian ah_level shift = 0
augmented hessian ah_start_tol = 2.5
augmented hessian ah_start_cycle = 3
augmented hessian ah_grad_trust_region = 3
kf_trust_region = 3
kf_interval = 4
ci_response_space = 4
ci_grad_trust_region = 3
with_dep4 0
natorb = False
canonicalization = True
sorting_mo_energy = False
chkfile = ./scratch/193196/tmpg7O2zP
max_memory 4000 MB (current use 217 MB)
internal_rotation = False

******** SHCI flags ********
executable             = /home/bamu3429/softwares/dice/Dice
mpiprefix              = srun -n20
scratchDirectory       = ./scratch/193196
integralFile           = ./FCIDUMP
configFile             = ./input.dat
outputFile             = ./output.dat
maxIter                = 6
sweep_iter             = []
sweep_epsilon          = []
nPTiter                = 0
Stochastic             = True
fullrestart            = False
restart                = False
num_thrds              = 12
memory                 = None

CASCI E = -101.839797908074  S^2 = 6.0000000
Set conv_tol_grad to 0.000316228
macro iter 1 (21 JK  4 micro), CASSCF E = -101.867274226873  dE = -0.027476319  S^2 = 6.0000000
               |grad[o]|=0.00793  |grad[c]|= None  |ddm|=0.144
macro iter 2 (21 JK  4 micro), CASSCF E = -101.904923989877  dE = -0.037649763  S^2 = 6.0000000
               |grad[o]|=0.0969  |grad[c]|= None  |ddm|=0.162
macro iter 3 (21 JK  4 micro), CASSCF E = -101.929323207844  dE = -0.024399218  S^2 = 6.0000000
               |grad[o]|=0.0921  |grad[c]|= None  |ddm|=0.0491
macro iter 4 (21 JK  4 micro), CASSCF E = -101.958254958318  dE = -0.02893175  S^2 = 6.0000000
               |grad[o]|=0.078  |grad[c]|= None  |ddm|= 0.11
macro iter 5 (17 JK  4 micro), CASSCF E = -101.970270921714  dE = -0.012015963  S^2 = 6.0000000
               |grad[o]|= 0.07  |grad[c]|= None  |ddm|=0.206
macro iter 6 (11 JK  4 micro), CASSCF E = -101.970386074013  dE = -0.0001151523  S^2 = 6.0000000
               |grad[o]|=0.00865  |grad[c]|= None  |ddm|=0.0218
macro iter 7 (8 JK  3 micro), CASSCF E = -101.970386869148  dE = -7.9513467e-07  S^2 = 6.0000000
               |grad[o]|=0.000548  |grad[c]|= None  |ddm|=0.00209
macro iter 8 (3 JK  1 micro), CASSCF E = -101.970386887526  dE = -1.8378088e-08  S^2 = 6.0000000
               |grad[o]|=0.000103  |grad[c]|= None  |ddm|=0.00014
1-step CASSCF converged in 8 macro (123 JK 28 micro) steps
CASSCF canonicalization
CASSCF energy = -101.970386887526


--------------------------------------------------
                 ICMPSPT CALCULATION              
--------------------------------------------------

Perturbation type: MRLCC
With fully internally contracted scheme
With third order correction

Preparing necessary RDMs
......production of RDMs took      73.75 sec
Reading binary 4RDM from DICE
......reading the RDM took         30.27 sec

(GOOD) Trace 4RDM:   5040.0 =   10*    9*    8*    7
(GOOD) Trace 3RDM:    720.0 =   10*    9*    8
(GOOD) Trace 2RDM:     90.0 =   10*    9
(GOOD) Trace 1RDM:     10.0 =   10

Producing the integrals
......production of INT took      40.84 sec

Energy_core = -104.45696276
Energy      = -101.97038689

WARNING: Have to use natural orbitals from CAASCF
         offdiagonal elements:    0.62258351

Basic ingredients written to int/
......savings of INGREDIENTS took      37.93 sec

Second-order:
perturber CCVV --        -0.081301082
perturber CCAV --        -0.052295827
perturber ACVV --        -0.118248752
perturber CCAA --        -0.040781675
perturber AAVV --        -0.148352324
perturber CAAV --        -0.131200462
perturber AAAV --        -0.057073830
perturber AAAC --        -0.004557094
Total:                   -0.633811047

Third-order:              0.002088653

Total PT       --        -0.631722393

