 &FCI NORB=9 ,NELEC=11 ,MS2=5,
  ORBSYM=1,1,1,1,1,1,1,1,1,
  ISYM=1,
 &END
  6.140276441653e-01    1  1  1  1
  3.007717821105e-02    2  1  2  1
  5.800587131389e-01    2  2  1  1
  6.707602165624e-01    2  2  2  2
  3.007717821105e-02    3  1  3  1
  3.120118374781e-02    3  2  3  2
  5.800587131389e-01    3  3  1  1
  6.083578490659e-01    3  3  2  2
  6.707602165624e-01    3  3  3  3
 -1.093338628884e-04    4  1  2  2
 -5.940043582645e-04    4  1  3  2
  1.093338628893e-04    4  1  3  3
  5.003971945160e-03    4  1  4  1
 -2.087432304978e-04    4  2  2  1
 -1.133956903826e-03    4  2  3  1
  2.465621269004e-03    4  2  4  2
 -1.133956903827e-03    4  3  2  1
  2.087432304980e-04    4  3  3  1
  2.465621269003e-03    4  3  4  3
  3.623007524907e-01    4  4  1  1
  3.232651726291e-01    4  4  2  2
  3.232651726291e-01    4  4  3  3
  8.534344789333e-01    4  4  4  4
  5.940043899568e-04    5  1  2  2
 -1.093338762406e-04    5  1  3  2
 -5.940043899575e-04    5  1  3  3
 -6.478905751615e-12    5  1  4  1
  5.003971869074e-03    5  1  5  1
  1.133956931058e-03    5  2  2  1
 -2.087432451091e-04    5  2  3  1
  9.949784475154e-12    5  2  4  2
 -1.179633309272e-03    5  2  4  3
  2.465621285295e-03    5  2  5  2
 -2.087432451091e-04    5  3  2  1
 -1.133956931059e-03    5  3  3  1
  1.179633309272e-03    5  3  4  2
  9.949750166667e-12    5  3  4  3
  2.465621285295e-03    5  3  5  3
 -1.780051381809e-10    5  4  1  1
 -1.475474244682e-10    5  4  2  2
 -1.475475247803e-10    5  4  3  3
 -3.869897826373e-10    5  4  4  4
  1.828644276364e-02    5  4  5  4
  3.623007513089e-01    5  5  1  1
  3.232651720607e-01    5  5  2  2
  3.232651720607e-01    5  5  3  3
  8.168615849873e-01    5  5  4  4
 -3.869903339089e-10    5  5  5  4
  8.534344620958e-01    5  5  5  5
  1.220450235566e-02    6  1  1  1
  2.149795268012e-02    6  1  2  2
  2.149795268012e-02    6  1  3  3
 -1.107188244698e-01    6  1  4  4
  6.027526505077e-11    6  1  5  4
 -1.107188226613e-01    6  1  5  5
  3.492144430171e-02    6  1  6  1
  3.779022932444e-03    6  2  2  1
  2.992241983651e-08    6  2  3  1
 -1.291461243832e-04    6  2  4  2
 -7.018946390664e-04    6  2  4  3
  7.018946856007e-04    6  2  5  2
 -1.291461420292e-04    6  2  5  3
  3.273204655668e-03    6  2  6  2
 -2.992241976694e-08    6  3  2  1
  3.779022932444e-03    6  3  3  1
 -7.018946390664e-04    6  3  4  2
  1.291461243833e-04    6  3  4  3
 -1.291461420292e-04    6  3  5  2
 -7.018946856006e-04    6  3  5  3
  3.273204655668e-03    6  3  6  3
 -4.316601248348e-04    6  4  2  2
 -2.345454103129e-03    6  4  3  2
  4.316601248350e-04    6  4  3  3
 -8.627576737768e-03    6  4  4  1
  1.987194468259e-10    6  4  5  1
  3.335229371185e-02    6  4  6  4
  2.345454152257e-03    6  5  2  2
 -4.316601374197e-04    6  5  3  2
 -2.345454152257e-03    6  5  3  3
 -1.664745453250e-10    6  5  4  1
 -8.627576440673e-03    6  5  5  1
 -2.342146500766e-12    6  5  6  4
  3.335229371870e-02    6  5  6  5
  3.658302075840e-01    6  6  1  1
  3.258058156415e-01    6  6  2  2
  3.258058156415e-01    6  6  3  3
  7.008061152612e-01    6  6  4  4
 -2.826255571102e-10    6  6  5  4
  7.008061092177e-01    6  6  5  5
 -1.058900563816e-01    6  6  6  1
  6.888755780455e-01    6  6  6  6
  2.740811979932e-03    7  1  2  1
 -3.394115091187e-03    7  1  3  1
 -8.201123034143e-04    7  1  4  2
  9.550629423760e-04    7  1  4  3
 -9.550629652777e-04    7  1  5  2
 -8.201123187129e-04    7  1  5  3
  6.006614789514e-04    7  1  6  2
 -7.439029613552e-04    7  1  6  3
  6.382612860738e-03    7  1  7  1
  2.970702803060e-02    7  2  1  1
  4.804608405620e-02    7  2  2  2
 -4.972232751378e-03    7  2  3  2
  4.001568721906e-02    7  2  3  3
  4.998060970181e-04    7  2  4  1
 -6.232830304678e-02    7  2  4  4
  5.821653731253e-04    7  2  5  1
  5.651301080629e-12    7  2  5  4
 -6.232830217151e-02    7  2  5  5
  1.918060835164e-02    7  2  6  1
 -1.984787620607e-03    7  2  6  4
 -2.311617202576e-03    7  2  6  5
 -5.366618443835e-02    7  2  6  6
  1.901647148284e-02    7  2  7  2
 -3.678686995491e-02    7  3  1  1
 -4.955281901485e-02    7  3  2  2
  4.015198418881e-03    7  3  3  2
 -5.949728451530e-02    7  3  3  3
 -5.821653965833e-04    7  3  4  1
  7.718743789841e-02    7  3  4  4
  4.998060727496e-04    7  3  5  1
 -1.257106566691e-11    7  3  5  4
  7.718743680087e-02    7  3  5  5
 -2.375298000924e-02    7  3  6  1
  2.311617201275e-03    7  3  6  4
 -1.984787598930e-03    7  3  6  5
  6.646032789288e-02    7  3  6  6
 -1.962923628265e-02    7  3  7  2
  2.747388138623e-02    7  3  7  3
 -1.457783749889e-03    7  4  2  1
  1.697736803885e-03    7  4  3  1
 -4.070699131109e-03    7  4  4  2
  5.041132961568e-03    7  4  4  3
 -2.313740185644e-03    7  4  5  2
 -1.868342276544e-03    7  4  5  3
  6.842567812931e-04    7  4  6  2
 -7.970242255509e-04    7  4  6  3
  2.208095517342e-03    7  4  7  1
  3.205024397247e-02    7  4  7  4
 -1.697736815712e-03    7  5  2  1
 -1.457783849073e-03    7  5  3  1
  2.313740101600e-03    7  5  4  2
  1.868342303832e-03    7  5  4  3
 -4.070699090821e-03    7  5  5  2
  5.041132849356e-03    7  5  5  3
  7.970242154360e-04    7  5  6  2
  6.842567855321e-04    7  5  6  3
 -6.661107453479e-05    7  5  7  1
 -3.197300705835e-11    7  5  7  4
  3.205024357736e-02    7  5  7  5
  1.783397334159e-03    7  6  2  1
 -2.208484727898e-03    7  6  3  1
  9.947771313824e-04    7  6  4  2
 -1.158668857659e-03    7  6  4  3
  1.158668860304e-03    7  6  5  2
  9.947771397885e-04    7  6  5  3
 -1.951960273750e-03    7  6  6  2
  2.417310939422e-03    7  6  6  3
 -3.621446905569e-03    7  6  7  1
 -6.942138439591e-03    7  6  7  4
  2.095325065179e-04    7  6  7  5
  1.994783916881e-02    7  6  7  6
  3.877908685526e-01    7  7  1  1
  3.483639514198e-01    7  7  2  2
 -4.392475182451e-03    7  7  3  2
  3.502563976938e-01    7  7  3  3
 -4.963148004334e-03    7  7  4  1
  7.688210448503e-01    7  7  4  4
  1.497949364726e-04    7  7  5  1
 -3.452323045292e-10    7  7  5  4
  7.688210374601e-01    7  7  5  5
 -1.105122890365e-01    7  7  6  1
  1.532784747013e-02    7  7  6  4
 -4.625514292328e-04    7  7  6  5
  7.080748908136e-01    7  7  6  6
 -6.356929861095e-02    7  7  7  2
  7.872447131011e-02    7  7  7  3
  8.150271344766e-01    7  7  7  7
 -3.394115091187e-03    8  1  2  1
 -2.740811979932e-03    8  1  3  1
 -9.550629423761e-04    8  1  4  2
 -8.201123034141e-04    8  1  4  3
  8.201123187131e-04    8  1  5  2
 -9.550629652776e-04    8  1  5  3
 -7.439029613550e-04    8  1  6  2
 -6.006614789514e-04    8  1  6  3
 -6.661115820713e-05    8  1  7  4
 -2.208095496378e-03    8  1  7  5
 -6.438047328989e-09    8  1  7  6
  6.382612860738e-03    8  1  8  1
 -3.678686995491e-02    8  2  1  1
 -5.949728451530e-02    8  2  2  2
 -4.015198418882e-03    8  2  3  2
 -4.955281901485e-02    8  2  3  3
  5.821653965823e-04    8  2  4  1
  7.718743789840e-02    8  2  4  4
 -4.998060727494e-04    8  2  5  1
 -1.257097984663e-11    8  2  5  4
  7.718743680087e-02    8  2  5  5
 -2.375298000924e-02    8  2  6  1
 -2.311617201275e-03    8  2  6  4
  1.984787598930e-03    8  2  6  5
  6.646032789287e-02    8  2  6  6
 -1.962923627750e-02    8  2  7  2
  2.114265515721e-02    8  2  7  3
  6.997914046549e-02    8  2  7  7
  2.747388138623e-02    8  2  8  2
 -2.970702803060e-02    8  3  1  1
 -4.001568721906e-02    8  3  2  2
 -4.972232751378e-03    8  3  3  2
 -4.804608405619e-02    8  3  3  3
  4.998060970174e-04    8  3  4  1
  6.232830304678e-02    8  3  4  4
  5.821653731255e-04    8  3  5  1
 -5.651393366677e-12    8  3  5  4
  6.232830217150e-02    8  3  5  5
 -1.918060835164e-02    8  3  6  1
 -1.984787620607e-03    8  3  6  4
 -2.311617202576e-03    8  3  6  5
  5.366618443835e-02    8  3  6  6
 -1.268524524458e-02    8  3  7  2
  1.962923627750e-02    8  3  7  3
  5.650748845446e-02    8  3  7  7
  1.962923628265e-02    8  3  8  2
  1.901647148284e-02    8  3  8  3
 -1.697736803885e-03    8  4  2  1
 -1.457783749889e-03    8  4  3  1
  5.041132961568e-03    8  4  4  2
  4.070699131109e-03    8  4  4  3
 -1.868342276544e-03    8  4  5  2
  2.313740185644e-03    8  4  5  3
  7.970242255507e-04    8  4  6  2
  6.842567812930e-04    8  4  6  3
 -6.661115820713e-05    8  4  7  1
  1.433312365641e-02    8  4  7  5
  2.095324606263e-04    8  4  7  6
 -2.208095517343e-03    8  4  8  1
  3.205024397247e-02    8  4  8  4
  1.457783849073e-03    8  5  2  1
 -1.697736815712e-03    8  5  3  1
  1.868342303832e-03    8  5  4  2
 -2.313740101600e-03    8  5  4  3
  5.041132849356e-03    8  5  5  2
  4.070699090821e-03    8  5  5  3
 -6.842567855321e-04    8  5  6  2
  7.970242154362e-04    8  5  6  3
 -2.208095496378e-03    8  5  7  1
 -1.433312365641e-02    8  5  7  4
  6.942138365405e-03    8  5  7  6
  6.661107453483e-05    8  5  8  1
 -3.197303482950e-11    8  5  8  4
  3.205024357736e-02    8  5  8  5
 -2.208484727898e-03    8  6  2  1
 -1.783397334159e-03    8  6  3  1
  1.158668857659e-03    8  6  4  2
  9.947771313824e-04    8  6  4  3
 -9.947771397883e-04    8  6  5  2
  1.158668860304e-03    8  6  5  3
  2.417310939422e-03    8  6  6  2
  1.951960273750e-03    8  6  6  3
  6.438047345876e-09    8  6  7  1
  2.095324606263e-04    8  6  7  4
  6.942138365405e-03    8  6  7  5
 -3.621446905569e-03    8  6  8  1
  6.942138439591e-03    8  6  8  4
 -2.095325065179e-04    8  6  8  5
  1.994783916881e-02    8  6  8  6
 -4.392475188788e-03    8  7  2  2
  9.462231315328e-04    8  7  3  2
  4.392475188788e-03    8  7  3  3
  1.497948985439e-04    8  7  4  1
  4.963147891056e-03    8  7  5  1
 -4.625514296912e-04    8  7  6  4
 -1.532784748075e-02    8  7  6  5
  4.372665423688e-03    8  7  7  2
  3.530905050292e-03    8  7  7  3
  1.200245076973e-11    8  7  7  7
 -3.530905050293e-03    8  7  8  2
  4.372665423688e-03    8  7  8  3
  3.113875221726e-02    8  7  8  7
  3.877908685526e-01    8  8  1  1
  3.502563976938e-01    8  8  2  2
  4.392475182449e-03    8  8  3  2
  3.483639514198e-01    8  8  3  3
  4.963148004329e-03    8  8  4  1
  7.688210448503e-01    8  8  4  4
 -1.497949364723e-04    8  8  5  1
 -3.452322655191e-10    8  8  5  4
  7.688210374601e-01    8  8  5  5
 -1.105122890365e-01    8  8  6  1
 -1.532784747013e-02    8  8  6  4
  4.625514292325e-04    8  8  6  5
  7.080748908136e-01    8  8  6  6
 -5.650748845447e-02    8  8  7  2
  6.997914046549e-02    8  8  7  3
  7.527496300753e-01    8  8  7  7
  7.872447131010e-02    8  8  8  2
  6.356929861095e-02    8  8  8  3
 -1.200343491714e-11    8  8  8  7
  8.150271344766e-01    8  8  8  8
  1.690126461583e-01    9  1  1  1
  1.679153979205e-01    9  1  2  2
  1.679153979205e-01    9  1  3  3
 -6.172760439474e-02    9  1  4  4
 -4.711674785089e-11    9  1  5  4
 -6.172760344363e-02    9  1  5  5
  3.655865783321e-02    9  1  6  1
 -4.866157517483e-02    9  1  6  6
  3.237703498920e-02    9  1  7  2
 -4.009422064413e-02    9  1  7  3
 -4.867221077119e-02    9  1  7  7
 -4.009422064413e-02    9  1  8  2
 -3.237703498920e-02    9  1  8  3
 -4.867221077119e-02    9  1  8  8
  1.143727756058e-01    9  1  9  1
  1.236244666199e-02    9  2  2  1
 -6.841394306857e-10    9  2  3  1
 -6.458165871439e-05    9  2  4  2
 -3.511218887613e-04    9  2  4  3
  3.511218999592e-04    9  2  5  2
 -6.458164851407e-05    9  2  5  3
  2.624561019379e-03    9  2  6  2
 -2.402714251296e-09    9  2  6  3
  1.727092702660e-03    9  2  7  1
  1.412521362517e-04    9  2  7  4
  1.644361180939e-04    9  2  7  5
 -1.682794287086e-04    9  2  7  6
 -2.138679564268e-03    9  2  8  1
  1.644361166745e-04    9  2  8  4
 -1.412522099057e-04    9  2  8  5
  2.084882713377e-04    9  2  8  6
  8.574435341647e-03    9  2  9  2
  6.841395403970e-10    9  3  2  1
  1.236244666199e-02    9  3  3  1
 -3.511218887613e-04    9  3  4  2
  6.458165871445e-05    9  3  4  3
 -6.458164851407e-05    9  3  5  2
 -3.511218999589e-04    9  3  5  3
  2.402714272206e-09    9  3  6  2
  2.624561019379e-03    9  3  6  3
 -2.138679564268e-03    9  3  7  1
 -1.644361166745e-04    9  3  7  4
  1.412522099057e-04    9  3  7  5
  2.084882713378e-04    9  3  7  6
 -1.727092702660e-03    9  3  8  1
  1.412521362518e-04    9  3  8  4
  1.644361180940e-04    9  3  8  5
  1.682794287086e-04    9  3  8  6
  8.574435341647e-03    9  3  9  3
  2.627512121568e-05    9  4  2  2
  1.427080560981e-04    9  4  3  2
 -2.627512121348e-05    9  4  3  3
 -5.933015220224e-03    9  4  4  1
 -8.717937968751e-12    9  4  5  1
  7.802194358535e-03    9  4  6  4
  2.046221248952e-10    9  4  6  5
 -5.653001683070e-04    9  4  7  2
  6.584377433624e-04    9  4  7  3
  4.270790617297e-03    9  4  7  7
 -6.584377433620e-04    9  4  8  2
 -5.653001683066e-04    9  4  8  3
 -1.289117761542e-04    9  4  8  7
 -4.270790617292e-03    9  4  8  8
  8.670658742819e-03    9  4  9  4
 -1.427080800671e-04    9  5  2  2
  2.627513683862e-05    9  5  3  2
  1.427080800672e-04    9  5  3  3
  1.306753378821e-11    9  5  4  1
 -5.933015138263e-03    9  5  5  1
 -2.335808366099e-10    9  5  6  4
  7.802193849868e-03    9  5  6  5
 -6.584377128176e-04    9  5  7  2
 -5.653001248162e-04    9  5  7  3
 -1.289117586903e-04    9  5  7  7
  5.653001248165e-04    9  5  8  2
 -6.584377128174e-04    9  5  8  3
 -4.270790397969e-03    9  5  8  7
  1.289117586915e-04    9  5  8  8
  4.574482915055e-12    9  5  9  4
  8.670658708360e-03    9  5  9  5
  7.500518621284e-02    9  6  1  1
  6.275565193725e-02    9  6  2  2
  6.275565193725e-02    9  6  3  3
  1.310220757303e-01    9  6  4  4
 -1.517282489700e-10    9  6  5  4
  1.310220734214e-01    9  6  5  5
 -2.956901184734e-02    9  6  6  1
  1.313295302572e-01    9  6  6  6
 -9.492184401097e-03    9  6  7  2
  1.175570491177e-02    9  6  7  3
  1.407765233022e-01    9  6  7  7
  1.175570491176e-02    9  6  8  2
  9.492184401097e-03    9  6  8  3
  1.407765233022e-01    9  6  8  8
  8.040805308429e-03    9  6  9  1
  5.337589208854e-02    9  6  9  6
  2.684157172492e-03    9  7  2  1
 -3.323857412122e-03    9  7  3  1
  2.696706863663e-04    9  7  4  2
 -3.140554567688e-04    9  7  4  3
  3.140554591455e-04    9  7  5  2
  2.696707020053e-04    9  7  5  3
 -6.514728047472e-04    9  7  6  2
  8.068790952781e-04    9  7  6  3
 -3.972480545970e-03    9  7  7  1
 -4.767367232294e-03    9  7  7  4
  1.438243758922e-04    9  7  7  5
  4.660117074744e-03    9  7  7  6
  4.267540385141e-09    9  7  8  1
  1.438243573963e-04    9  7  8  4
  4.767367308542e-03    9  7  8  5
 -1.025490623277e-08    9  7  8  6
  4.743330917434e-04    9  7  9  2
 -5.875672692633e-04    9  7  9  3
  1.073174229118e-02    9  7  9  7
 -3.323857412122e-03    9  8  2  1
 -2.684157172492e-03    9  8  3  1
  3.140554567688e-04    9  8  4  2
  2.696706863663e-04    9  8  4  3
 -2.696707020053e-04    9  8  5  2
  3.140554591456e-04    9  8  5  3
  8.068790952780e-04    9  8  6  2
  6.514728047472e-04    9  8  6  3
 -4.267540389715e-09    9  8  7  1
  1.438243573962e-04    9  8  7  4
  4.767367308542e-03    9  8  7  5
  1.025490623643e-08    9  8  7  6
 -3.972480545970e-03    9  8  8  1
  4.767367232294e-03    9  8  8  4
 -1.438243758922e-04    9  8  8  5
  4.660117074744e-03    9  8  8  6
 -5.875672692632e-04    9  8  9  2
 -4.743330917434e-04    9  8  9  3
  1.073174229118e-02    9  8  9  8
  3.486215156704e-01    9  9  1  1
  3.220484244254e-01    9  9  2  2
  3.220484244254e-01    9  9  3  3
  3.990540957267e-01    9  9  4  4
 -4.519925646459e-11    9  9  5  4
  3.990540938854e-01    9  9  5  5
 -2.538604065560e-02    9  9  6  1
  3.893734770321e-01    9  9  6  6
 -1.098689907496e-02    9  9  7  2
  1.360627089353e-02    9  9  7  3
  4.067762739965e-01    9  9  7  7
  1.360627089353e-02    9  9  8  2
  1.098689907496e-02    9  9  8  3
  4.067762739965e-01    9  9  8  8
  7.259073273238e-03    9  9  9  1
  4.752073339634e-02    9  9  9  6
  3.342512488611e-01    9  9  9  9
 -4.988089418778e+00    1  1  0  0
 -4.896591931168e+00    2  2  0  0
 -4.896591931168e+00    3  3  0  0
 -5.584720538791e+00    4  4  0  0
  2.226655225133e-09    5  4  0  0
 -5.584720506954e+00    5  5  0  0
  4.764614712057e-01    6  1  0  0
 -5.206873621020e+00    6  6  0  0
  1.358441888757e-01    7  2  0  0
 -1.682395590515e-01    7  3  0  0
 -5.578228284135e+00    7  7  0  0
 -1.682395590515e-01    8  2  0  0
 -1.358441888757e-01    8  3  0  0
 -5.578228284135e+00    8  8  0  0
 -5.009522815385e-01    9  1  0  0
 -8.517569491479e-01    9  6  0  0
 -3.713422388992e+00    9  9  0  0
    -88.252363363043   0  0  0  0
