#INFO: **** input file is /projects/bamu3429/BENCHMARK/fresh_atoms/MRPT/monoxides/MnO/mrpt.py ****
import json
from pyscf import gto,scf,mcscf, fci, lo, ci, cc
from pyscf.scf import ROHF, UHF,ROKS
import numpy as np
import pandas as pd

# THIS IS WERE IT STARTS ====================================

df=json.load(open("../../trail.json"))

spins={'ScO':1, 'TiO':2, 'VO':3, 'CrO':4, 'MnO':5, 'FeO':4, 'CuO':1}

nd={'Sc':(1,0), 'Ti':(2,0), 'V':(3,0), 'Cr':(5,0), 'Mn':(5,0), 'Fe':(5,1), 'Cu':(5,4)}

cas={'Sc':3, 'Ti':4, 'V':5, 'Cr':6, 'Mn':7, 'Fe':8, 'Cu':11}

re={'ScO':1.668, 'TiO':1.623, 'VO':1.591, 'CrO':1.621, 'MnO':1.648, 'FeO':1.616, 'CuO':1.725}

datacsv={}
for nm in ['basis','charge','method','molecule','pseudopotential',
           'totalenergy','totalenergy-stocherr','totalenergy-syserr']:
  datacsv[nm]=[]

basis='vdz'
element='Mn'

mol=gto.Mole()
mol.ecp={}
mol.basis={}
for el in [element,'O']:
  mol.ecp[el]=gto.basis.parse_ecp(df[el]['ecp'])
  mol.basis[el]=gto.basis.parse(df[el][basis])
mol.charge=0
mol.spin=spins[element+'O']
mol.build(atom="%s 0. 0. 0.; O 0. 0. %g"%(element,re[element+'O']),verbose=4)

m=ROHF(mol)
m.level_shift=1000.0
dm=m.from_chk("../../../HF/monoxides/"+element+basis+"0.chk")
hf=m.kernel(dm)
m.analyze()

from pyscf.shciscf import shci
mc = shci.SHCISCF(m, 9, 4+cas[element])
#mc.fcisolver.conv_tol = 1e-14
mc.fcisolver.mpiprefix="mpirun -np 28"
mc.fcisolver.num_thrds=12
mc.verbose = 4
cas=mc.kernel()[0]
 
from pyscf.icmpspt import icmpspt
pt=icmpspt.icmpspt(mc,rdmM=500, PTM=1000,\
                          pttype="MRLCC",\
                          third_order=True,\
                          fully_ic=True,\
                          do_dm4=True)

datacsv['basis'].append(basis)
datacsv['charge'].append(0)
datacsv['method'].append('MRPT')
datacsv['molecule'].append(element)
datacsv['pseudopotential'].append('trail')
datacsv['totalenergy'].append(cas+pt)
datacsv['totalenergy-stocherr'].append(0.0)
datacsv['totalenergy-syserr'].append(0.0)
pd.DataFrame(datacsv).to_csv(element+".csv",index=False)

#INFO: ******************** input file end ********************


System: ('Linux', 'bnode0308.rc.int.colorado.edu', '3.10.0-514.41.1.el7.x86_64', '#1 SMP Wed Jan 17 10:26:16 EST 2018', 'x86_64', 'x86_64')  Threads 1
Python 2.7.11 (default, Mar 22 2016, 01:42:54) 
[GCC Intel(R) C++ gcc 4.8 mode]
numpy 1.11.1  scipy 0.17.1
Date: Mon Mar 26 10:16:42 2018
PySCF version 1.4
PySCF path  /projects/bamu3429/softwares/pyscf_uptodate/pyscf
GIT ORIG_HEAD e2292e6edec2b0e0024c21b81de03db1d7bd4121
GIT HEAD      ref: refs/heads/master
GIT master branch  f3591ef22170896a4cdc2aadaa6f5da388ffcadb

[INPUT] VERBOSE 4
[INPUT] num atoms = 2
[INPUT] num electrons = 21
[INPUT] charge = 0
[INPUT] spin (= nelec alpha-beta = 2S) = 5
[INPUT] symmetry False subgroup None
[INPUT]  1 Mn     0.000000000000   0.000000000000   0.000000000000 AA    0.000000000000   0.000000000000   0.000000000000 Bohr
[INPUT]  2 O      0.000000000000   0.000000000000   1.648000000000 AA    0.000000000000   0.000000000000   3.114268653283 Bohr
[INPUT] ---------------- BASIS SET ---------------- 
[INPUT] l, kappa, [nprim/nctr], expnt,             c_1 c_2 ...
[INPUT] Mn
[INPUT] 0    0    [12   /1   ]  41.19094709       0.0124
                                21.94503151       -0.141461
                                12.89081507       0.669584
                                8.14876869        -1.015431
                                3.94904809        0.149151
                                1.91298055        0.350677
                                1.10736282        0.627006
                                0.4793266         0.235349
                                0.22675293        -0.024214
                                0.10639652        0.017357
                                0.05000494        -0.005272
                                0.0234982         0.002181
[INPUT] 0    0    [12   /1   ]  41.19094709       -0.002036
                                21.94503151       0.02709
                                12.89081507       -0.142056
                                8.14876869        0.229945
                                3.94904809        -0.035538
                                1.91298055        -0.085336
                                1.10736282        -0.24355
                                0.4793266         -0.201798
                                0.22675293        0.098761
                                0.10639652        0.439512
                                0.05000494        0.524416
                                0.0234982         0.13192
[INPUT] 0    0    [12   /1   ]  41.19094709       -0.004448
                                21.94503151       0.086272
                                12.89081507       -0.555298
                                8.14876869        1.050441
                                3.94904809        -0.337173
                                1.91298055        -1.203908
                                1.10736282        -0.006079
                                0.4793266         0.670363
                                0.22675293        0.824311
                                0.10639652        0.061945
                                0.05000494        -0.613998
                                0.0234982         -0.243067
[INPUT] 0    0    [1    /1   ]  0.0234982            1
[INPUT] 0    0    [1    /1   ]  0.01104221           1
[INPUT] 1    0    [12   /1   ]  60.1913049        0.000757
                                31.1792672        -0.006538
                                16.24276866       0.042902
                                8.80021485        -0.164602
                                5.33575038        0.099387
                                3.0325056         0.217723
                                1.63861968        0.443669
                                0.80258711        0.32785
                                0.40627833        0.098641
                                0.17382998        0.011768
                                0.07306386        -0.000703
                                0.03071005        0.000403
[INPUT] 1    0    [12   /1   ]  60.1913049        -0.000118
                                31.1792672        0.001208
                                16.24276866       -0.009122
                                8.80021485        0.038924
                                5.33575038        -0.027473
                                3.0325056         -0.058215
                                1.63861968        -0.124371
                                0.80258711        -0.107355
                                0.40627833        0.040741
                                0.17382998        0.350952
                                0.07306386        0.523294
                                0.03071005        0.234255
[INPUT] 1    0    [12   /1   ]  60.1913049        -0.000211
                                31.1792672        -0.002024
                                16.24276866       0.037014
                                8.80021485        -0.235453
                                5.33575038        0.184384
                                3.0325056         0.808525
                                1.63861968        0.15119
                                0.80258711        -0.861849
                                0.40627833        -0.476701
                                0.17382998        0.542345
                                0.07306386        0.419535
                                0.03071005        0.008828
[INPUT] 1    0    [1    /1   ]  0.03071005           1
[INPUT] 1    0    [1    /1   ]  0.01290798           1
[INPUT] 2    0    [10   /1   ]  52.56900844       0.000307
                                23.81654224       -0.007961
                                11.32693504       0.114253
                                4.99176622        0.164228
                                2.46839125        0.269996
                                1.15974738        0.320627
                                0.53124091        0.273188
                                0.24220121        0.161357
                                0.11248934        0.058244
                                0.05201371        0.009574
[INPUT] 2    0    [10   /1   ]  52.56900844       0.000227
                                23.81654224       0.005426
                                11.32693504       -0.108395
                                4.99176622        -0.200206
                                2.46839125        -0.359104
                                1.15974738        -0.096632
                                0.53124091        0.250081
                                0.24220121        0.404676
                                0.11248934        0.295662
                                0.05201371        0.077911
[INPUT] 2    0    [1    /1   ]  0.05201371           1
[INPUT] 2    0    [1    /1   ]  0.02405051           1
[INPUT] 3    0    [1    /1   ]  2.379676             1
[INPUT] 3    0    [1    /1   ]  1.10033338           1
[INPUT] O
[INPUT] 0    0    [10   /1   ]  57.663349         -0.002794
                                35.726816         0.023976
                                22.453757         -0.115974
                                14.732301         0.288033
                                9.739917          -0.274786
                                5.042008          -0.083789
                                2.157818          0.063778
                                1.002916          0.410182
                                0.421839          0.504044
                                0.173041          0.172152
[INPUT] 0    0    [1    /1   ]  0.222099             1
[INPUT] 0    0    [1    /1   ]  0.08884              1
[INPUT] 1    0    [10   /1   ]  52.47406          -0.000522
                                32.138432         0.004857
                                19.458579         -0.027749
                                11.839344         0.074258
                                7.91003           0.014369
                                3.670858          0.153479
                                1.53966           0.283685
                                0.647119          0.358201
                                0.267853          0.29559
                                0.107198          0.104889
[INPUT] 1    0    [1    /1   ]  0.252604             1
[INPUT] 1    0    [1    /1   ]  0.101042             1
[INPUT] 2    0    [1    /1   ]  1.223113             1
[INPUT] 2    0    [1    /1   ]  0.489245             1
nuclear repulsion = 28.8992408876214
number of shells = 24
number of NR pGTOs = 334
number of NR cGTOs = 76
basis = {'Mn': [[0, [41.19094709, 0.0124], [21.94503151, -0.141461], [12.89081507, 0.669584], [8.14876869, -1.015431], [3.94904809, 0.149151], [1.91298055, 0.350677], [1.10736282, 0.627006], [0.4793266, 0.235349], [0.22675293, -0.024214], [0.10639652, 0.017357], [0.05000494, -0.005272], [0.0234982, 0.002181]], [0, [41.19094709, -0.002036], [21.94503151, 0.02709], [12.89081507, -0.142056], [8.14876869, 0.229945], [3.94904809, -0.035538], [1.91298055, -0.085336], [1.10736282, -0.24355], [0.4793266, -0.201798], [0.22675293, 0.098761], [0.10639652, 0.439512], [0.05000494, 0.524416], [0.0234982, 0.13192]], [0, [41.19094709, -0.004448], [21.94503151, 0.086272], [12.89081507, -0.555298], [8.14876869, 1.050441], [3.94904809, -0.337173], [1.91298055, -1.203908], [1.10736282, -0.006079], [0.4793266, 0.670363], [0.22675293, 0.824311], [0.10639652, 0.061945], [0.05000494, -0.613998], [0.0234982, -0.243067]], [0, [0.0234982, 1.0]], [0, [0.01104221, 1.0]], [1, [60.1913049, 0.000757], [31.1792672, -0.006538], [16.24276866, 0.042902], [8.80021485, -0.164602], [5.33575038, 0.099387], [3.0325056, 0.217723], [1.63861968, 0.443669], [0.80258711, 0.32785], [0.40627833, 0.098641], [0.17382998, 0.011768], [0.07306386, -0.000703], [0.03071005, 0.000403]], [1, [60.1913049, -0.000118], [31.1792672, 0.001208], [16.24276866, -0.009122], [8.80021485, 0.038924], [5.33575038, -0.027473], [3.0325056, -0.058215], [1.63861968, -0.124371], [0.80258711, -0.107355], [0.40627833, 0.040741], [0.17382998, 0.350952], [0.07306386, 0.523294], [0.03071005, 0.234255]], [1, [60.1913049, -0.000211], [31.1792672, -0.002024], [16.24276866, 0.037014], [8.80021485, -0.235453], [5.33575038, 0.184384], [3.0325056, 0.808525], [1.63861968, 0.15119], [0.80258711, -0.861849], [0.40627833, -0.476701], [0.17382998, 0.542345], [0.07306386, 0.419535], [0.03071005, 0.008828]], [1, [0.03071005, 1.0]], [1, [0.01290798, 1.0]], [2, [52.56900844, 0.000307], [23.81654224, -0.007961], [11.32693504, 0.114253], [4.99176622, 0.164228], [2.46839125, 0.269996], [1.15974738, 0.320627], [0.53124091, 0.273188], [0.24220121, 0.161357], [0.11248934, 0.058244], [0.05201371, 0.009574]], [2, [52.56900844, 0.000227], [23.81654224, 0.005426], [11.32693504, -0.108395], [4.99176622, -0.200206], [2.46839125, -0.359104], [1.15974738, -0.096632], [0.53124091, 0.250081], [0.24220121, 0.404676], [0.11248934, 0.295662], [0.05201371, 0.077911]], [2, [0.05201371, 1.0]], [2, [0.02405051, 1.0]], [3, [2.379676, 1.0]], [3, [1.10033338, 1.0]]], 'O': [[0, [57.663349, -0.002794], [35.726816, 0.023976], [22.453757, -0.115974], [14.732301, 0.288033], [9.739917, -0.274786], [5.042008, -0.083789], [2.157818, 0.063778], [1.002916, 0.410182], [0.421839, 0.504044], [0.173041, 0.172152]], [0, [0.222099, 1.0]], [0, [0.08884, 1.0]], [1, [52.47406, -0.000522], [32.138432, 0.004857], [19.458579, -0.027749], [11.839344, 0.074258], [7.91003, 0.014369], [3.670858, 0.153479], [1.53966, 0.283685], [0.647119, 0.358201], [0.267853, 0.29559], [0.107198, 0.104889]], [1, [0.252604, 1.0]], [1, [0.101042, 1.0]], [2, [1.223113, 1.0]], [2, [0.489245, 1.0]]]}
ecp = {'Mn': [10, [[-1, [[], [[18.43432244, 15.0]], [[12.74175213, 31301.56494509], [11.67410914, -4576.3546318], [12.90376156, -26766.73507377], [4.97171871, -4.09339906]], [[8.79264819, 276.51483655]]]], [0, [[], [], [[13.56187871, 2771.78238977], [9.44812535, 12553.69429672], [10.76503846, 1886.79316638], [11.65345594, -9260.55332402], [8.48073002, -8943.95003535], [6.96707028, 1041.73211249]], []]], [1, [[], [], [[12.71342918, -23181.32761179], [18.03174513, 111577.22220216], [16.6827906, -42399.84416473], [13.18867124, 16025.79106608], [18.42861128, -76264.60573764], [12.90928974, 14270.47832347]], []]], [2, [[], [], [[8.13384228, -382.83904013], [14.28699222, 5676.99013005], [11.14406629, 35338.03440844], [11.37674978, -38881.44458388], [18.25818233, 3550.6602642], [17.73146307, -5317.47975296]], []]]]], 'O': [2, [[-1, [[], [[10.27717748, 6.0]], [[15.99566749, 1232.50197768], [10.46901775, -696.47008301], [14.6384801, -2654.22657081], [12.57591181, 2101.67732548]], [[7.77739102, 61.66306486]]]], [0, [[], [], [[12.39426073, -656683.37638839], [12.38126171, 657858.57667068], [8.57671033, 511.50098405], [9.89256508, -2579.54665641], [28.05641604, -57.68129584], [17.24753607, 970.30940152]], []]], [1, [[], [], [[14.78918914, -363027.24258186], [14.82014018, 361852.52314043], [22.89622221, -1300.20069256], [8.51331893, -181.96869573], [11.48609758, 2194.87589959], [27.22017524, 451.19906206]], []]]]]}
CPU time:         0.63


******** <class 'pyscf.scf.rohf.ROHF'> flags ********
method = ROHF
initial guess = minao
damping factor = 0
level shift factor = 1000.0
DIIS = <class 'pyscf.scf.diis.CDIIS'>
DIIS start cycle = 1
DIIS space = 8
SCF tol = 1e-09
SCF gradient tol = None
max. SCF cycles = 50
direct_scf = True
direct_scf_tol = 1e-13
chkfile to save SCF result = /projects/bamu3429/BENCHMARK/fresh_atoms/MRPT/monoxides/MnO/tmpvU5NPV
max_memory 4000 MB (current use 81 MB)
num. doubly occ = 8  num. singly occ = 5
Set gradient conv threshold to 3.16228e-05
init E= -119.132808823524
  HOMO = 499.879542934522  LUMO = 999.972738701549
cycle= 1 E= -119.132808823524  delta_E= -1.14e-13  |g|= 6.95e-06  |ddm|= 3.74e-08
  HOMO = -0.120457060867412  LUMO = -0.0272612981657554
Extra cycle  E= -119.132808823531  delta_E= -6.76e-12  |g|= 1.39e-05  |ddm|= 2.59e-05
converged SCF energy = -119.132808823531
**** MO energy ****
                Roothaan           | alpha              | beta
MO #1   energy= -4.02627042389394  | -4.23041309363509  | -3.82212775208876  occ= 2
MO #2   energy= -2.54005161811368  | -2.77832456117971  | -2.30177866647181  occ= 2
MO #3   energy= -2.53528423961167  | -2.78487619528611  | -2.28569227485877  occ= 2
MO #4   energy= -2.53528423961166  | -2.7848761952861   | -2.28569227485876  occ= 2
MO #5   energy= -1.11084819999039  | -1.12343874205085  | -1.09825766076211  occ= 2
MO #6   energy= -0.394832114803576 | -0.421322292998211 | -0.368342977694775 occ= 2
MO #7   energy= -0.382131443988375 | -0.406599840944489 | -0.357664186177449 occ= 2
MO #8   energy= -0.382131443988373 | -0.40659984094449  | -0.357664186177449 occ= 2
MO #9   energy= -0.149895096311974 | -0.634563580652411 | 0.334773282807386  occ= 1
MO #10  energy= -0.149895096311881 | -0.634563580652975 | 0.334773282807519  occ= 1
MO #11  energy= -0.124330124879821 | -0.511728041103537 | 0.26307316995248   occ= 1
MO #12  energy= -0.120457060867415 | -0.584379620101233 | 0.343466723452046  occ= 1
MO #13  energy= -0.120457060867412 | -0.584379620101226 | 0.343466723452048  occ= 1
MO #14  energy= -0.0272612981657554 | -0.0394150318567774 | -0.0151091305982058 occ= 0
MO #15  energy= 0.0178469993809762 | 0.0161974656832801 | 0.0194965114981316 occ= 0
MO #16  energy= 0.0178469993809763 | 0.0161974656832803 | 0.0194965114981316 occ= 0
MO #17  energy= 0.0204126837476838 | 0.015294390142499  | 0.0255305997390507 occ= 0
MO #18  energy= 0.0360484622275874 | 0.0352767026690924 | 0.0368200825281541 occ= 0
MO #19  energy= 0.0683849883117069 | 0.0638582240990051 | 0.0729118047125982 occ= 0
MO #20  energy= 0.0683849883117102 | 0.0638582240990076 | 0.0729118047126014 occ= 0
MO #21  energy= 0.0701099726378981 | 0.0698405696236713 | 0.0703793736351914 occ= 0
MO #22  energy= 0.0701099726379077 | 0.0698405696236739 | 0.0703793736351774 occ= 0
MO #23  energy= 0.0832787232257275 | 0.0820903215026291 | 0.0844670068517449 occ= 0
MO #24  energy= 0.0932863219520402 | 0.0887864123703586 | 0.0977862606369753 occ= 0
MO #25  energy= 0.0932863219520415 | 0.0887864123703608 | 0.0977862606369747 occ= 0
MO #26  energy= 0.137246198565617  | 0.132065266971821  | 0.142426596961296  occ= 0
MO #27  energy= 0.161666328604979  | 0.146413633091136  | 0.17691889065066   occ= 0
MO #28  energy= 0.210977131448948  | 0.206708152095755  | 0.215246107069658  occ= 0
MO #29  energy= 0.210977131448952  | 0.206708152095757  | 0.215246107069663  occ= 0
MO #30  energy= 0.216471535242802  | 0.208964926283739  | 0.223977700410914  occ= 0
MO #31  energy= 0.216914381157664  | 0.210055987135558  | 0.223772776009126  occ= 0
MO #32  energy= 0.216914381157766  | 0.210055987135584  | 0.223772776009047  occ= 0
MO #33  energy= 0.296176676198698  | 0.268560812315798  | 0.323792532764889  occ= 0
MO #34  energy= 0.296176676198704  | 0.268560812315803  | 0.323792532764895  occ= 0
MO #35  energy= 0.434030654715388  | 0.420790658019174  | 0.447270308773266  occ= 0
MO #36  energy= 0.491858396847328  | 0.4821022032795    | 0.501614321427174  occ= 0
MO #37  energy= 0.493866588502224  | 0.49199286583737   | 0.495740313138689  occ= 0
MO #38  energy= 0.493866588502227  | 0.491992865837372  | 0.495740313138692  occ= 0
MO #39  energy= 1.15531059798272   | 1.11738174405414   | 1.19323936660511   occ= 0
MO #40  energy= 1.32606955389592   | 1.25376769474266   | 1.39837148338559   occ= 0
MO #41  energy= 1.32606955389629   | 1.25376769474301   | 1.3983714833857    occ= 0
MO #42  energy= 1.32929277282817   | 1.26286936923588   | 1.39571603480179   occ= 0
MO #43  energy= 1.32929277282817   | 1.26286936923588   | 1.39571603480179   occ= 0
MO #44  energy= 1.53350335958348   | 1.50337399998621   | 1.56363275616006   occ= 0
MO #45  energy= 1.53350335958359   | 1.50337399998622   | 1.56363275616021   occ= 0
MO #46  energy= 1.58085061410692   | 1.57681421094954   | 1.58488701739088   occ= 0
MO #47  energy= 1.62169203753159   | 1.61795584479992   | 1.62542823274603   occ= 0
MO #48  energy= 1.62169203753161   | 1.61795584479993   | 1.62542823274605   occ= 0
MO #49  energy= 1.75239386739343   | 1.68795128971708   | 1.81683620123846   occ= 0
MO #50  energy= 1.81272697763743   | 1.76987763366549   | 1.85557631967346   occ= 0
MO #51  energy= 1.81272697763743   | 1.7698776336655    | 1.85557631967347   occ= 0
MO #52  energy= 2.01847560677124   | 1.97402990400639   | 2.06292122122439   occ= 0
MO #53  energy= 2.26661502908104   | 2.24064633730262   | 2.29258372727772   occ= 0
MO #54  energy= 3.12301233301305   | 3.03493070180518   | 3.21109396420678   occ= 0
MO #55  energy= 3.12301233301305   | 3.03493070180518   | 3.21109396420678   occ= 0
MO #56  energy= 3.14770930479007   | 3.07605788658039   | 3.21936072104694   occ= 0
MO #57  energy= 3.17648821920866   | 3.0717813884321    | 3.28119504998524   occ= 0
MO #58  energy= 3.17648821920866   | 3.07178138843209   | 3.28119504998524   occ= 0
MO #59  energy= 3.20107281901148   | 3.10362549487267   | 3.29852014248297   occ= 0
MO #60  energy= 3.20107281901149   | 3.10362549487267   | 3.29852014248296   occ= 0
MO #61  energy= 3.45025769570926   | 3.37040525571278   | 3.53011013094344   occ= 0
MO #62  energy= 3.45025769570926   | 3.37040525571278   | 3.53011013094344   occ= 0
MO #63  energy= 4.19513171627007   | 4.13139701872123   | 4.25886641080612   occ= 0
MO #64  energy= 4.29382634591821   | 4.28917756433237   | 4.29847512755198   occ= 0
MO #65  energy= 4.29382634591821   | 4.28917756433239   | 4.29847512755199   occ= 0
MO #66  energy= 4.4235078846054    | 4.42022697108438   | 4.42678879834887   occ= 0
MO #67  energy= 4.4235078846054    | 4.4202269710844    | 4.42678879834888   occ= 0
MO #68  energy= 4.53321069582944   | 4.51154667178968   | 4.55487471830673   occ= 0
MO #69  energy= 8.27375756883193   | 8.21980306254429   | 8.3277120729824    occ= 0
MO #70  energy= 8.55513834362381   | 8.44705945404671   | 8.66321723320089   occ= 0
MO #71  energy= 8.55513834362383   | 8.44705945404674   | 8.66321723320092   occ= 0
MO #72  energy= 8.57497215114737   | 8.46482477243718   | 8.68511952957052   occ= 0
MO #73  energy= 8.5749721511474    | 8.46482477243726   | 8.68511952957048   occ= 0
MO #74  energy= 8.70788985436548   | 8.60541909204603   | 8.81036061665846   occ= 0
MO #75  energy= 8.70788985436548   | 8.60541909204602   | 8.81036061665845   occ= 0
MO #76  energy= 9.10776086776287   | 9.03571639872419   | 9.17980533421652   occ= 0
 ** Mulliken pop on meta-lowdin orthogonal AOs  **
 ** Mulliken pop  **
pop of  0Mn 3s        1.99990
pop of  0Mn 4s        0.45057
pop of  0Mn 5s        0.00877
pop of  0Mn 6s        0.00758
pop of  0Mn 7s        0.00202
pop of  0Mn 3px       1.99957
pop of  0Mn 3py       1.99957
pop of  0Mn 3pz       1.99856
pop of  0Mn 4px       0.05209
pop of  0Mn 4py       0.05209
pop of  0Mn 4pz       0.00362
pop of  0Mn 5px       0.00142
pop of  0Mn 5py       0.00142
pop of  0Mn 5pz       0.00134
pop of  0Mn 6px       0.00487
pop of  0Mn 6py       0.00487
pop of  0Mn 6pz       0.00216
pop of  0Mn 7px       0.00073
pop of  0Mn 7py       0.00073
pop of  0Mn 7pz       0.00046
pop of  0Mn 3dxy      0.99754
pop of  0Mn 3dyz      1.06178
pop of  0Mn 3dz^2     1.02658
pop of  0Mn 3dxz      1.06178
pop of  0Mn 3dx2-y2    0.99754
pop of  0Mn 4dxy      0.00152
pop of  0Mn 4dyz      0.00369
pop of  0Mn 4dz^2     0.00016
pop of  0Mn 4dxz      0.00369
pop of  0Mn 4dx2-y2    0.00152
pop of  0Mn 5dxy      0.00081
pop of  0Mn 5dyz      0.00152
pop of  0Mn 5dz^2     0.00130
pop of  0Mn 5dxz      0.00152
pop of  0Mn 5dx2-y2    0.00081
pop of  0Mn 6dxy      0.00002
pop of  0Mn 6dyz      0.00025
pop of  0Mn 6dz^2     0.00033
pop of  0Mn 6dxz      0.00025
pop of  0Mn 6dx2-y2    0.00002
pop of  0Mn 4fy^3     0.00000
pop of  0Mn 4fxyz     0.00001
pop of  0Mn 4fyz^2    0.00004
pop of  0Mn 4fz^3     0.00007
pop of  0Mn 4fxz^2    0.00004
pop of  0Mn 4fzx^2    0.00001
pop of  0Mn 4fx^3     0.00000
pop of  0Mn 5fy^3     0.00000
pop of  0Mn 5fxyz     0.00007
pop of  0Mn 5fyz^2    0.00030
pop of  0Mn 5fz^3     0.00022
pop of  0Mn 5fxz^2    0.00030
pop of  0Mn 5fzx^2    0.00007
pop of  0Mn 5fx^3     0.00000
pop of  1O 2s        1.89904
pop of  1O 3s        0.00200
pop of  1O 4s        0.00507
pop of  1O 2px       1.84230
pop of  1O 2py       1.84230
pop of  1O 2pz       1.57639
pop of  1O 3px       0.00789
pop of  1O 3py       0.00789
pop of  1O 3pz       0.00422
pop of  1O 4px       0.01643
pop of  1O 4py       0.01643
pop of  1O 4pz       0.00520
pop of  1O 3dxy      0.00000
pop of  1O 3dyz      0.00087
pop of  1O 3dz^2     0.00119
pop of  1O 3dxz      0.00087
pop of  1O 3dx2-y2    0.00000
pop of  1O 4dxy      0.00003
pop of  1O 4dyz      0.00625
pop of  1O 4dz^2     0.00325
pop of  1O 4dxz      0.00625
pop of  1O 4dx2-y2    0.00003
 ** Mulliken atomic charges  **
charge of  0Mn =      1.24392
charge of  1O =     -1.24392

******** <class 'pyscf.mcscf.mc1step.CASSCF'> flags ********
CAS (8e+3e, 9o), ncore = 5, nvir = 62
max_cycle_macro = 50
max_cycle_micro = 4
conv_tol = 1e-07
conv_tol_grad = None
orbital rotation max_stepsize = 0.02
augmented hessian ah_max_cycle = 30
augmented hessian ah_conv_tol = 1e-12
augmented hessian ah_linear dependence = 1e-14
augmented hessian ah_level shift = 0
augmented hessian ah_start_tol = 2.5
augmented hessian ah_start_cycle = 3
augmented hessian ah_grad_trust_region = 3
kf_trust_region = 3
kf_interval = 4
ci_response_space = 4
ci_grad_trust_region = 3
with_dep4 0
natorb = False
canonicalization = True
chkfile = ./scratch/129093/tmpw8FX0Q
max_memory 4000 MB (current use 129 MB)
internal_rotation = False

******** SHCI flags ********
executable             = /home/bamu3429/softwares/dice/Dice
mpiprefix              = mpirun -np 28
scratchDirectory       = ./scratch/129093
integralFile           = ./FCIDUMP
configFile             = ./input.dat
outputFile             = ./output.dat
maxIter                = 6
sweep_iter             = []
sweep_epsilon          = []
nPTiter                = 0
Stochastic             = True
fullrestart            = False
restart                = False
num_thrds              = 12
memory                 = None

CASCI E = -119.14235113624  S^2 = 8.7500000
Set conv_tol_grad to 0.000316228
macro iter 1 (21 JK  4 micro), CASSCF E = -119.199256401323  dE = -0.056905265  S^2 = 8.7500000
               |grad[o]|=0.0672  |grad[c]|= None  |ddm|=0.435
macro iter 2 (13 JK  4 micro), CASSCF E = -119.220487245777  dE = -0.021230844  S^2 = 8.7500000
               |grad[o]|= 0.15  |grad[c]|= None  |ddm|=0.253
macro iter 3 (9 JK  4 micro), CASSCF E = -119.220715378087  dE = -0.00022813231  S^2 = 8.7500000
               |grad[o]|=0.015  |grad[c]|= None  |ddm|=0.0231
macro iter 4 (8 JK  3 micro), CASSCF E = -119.220715637516  dE = -2.5942904e-07  S^2 = 8.7500000
               |grad[o]|=0.000521  |grad[c]|= None  |ddm|=0.00066
macro iter 5 (3 JK  1 micro), CASSCF E = -119.220715640162  dE = -2.6456917e-09  S^2 = 8.7500000
               |grad[o]|=5.11e-05  |grad[c]|= None  |ddm|=    0
1-step CASSCF converged in 5 macro (54 JK 16 micro) steps
CASSCF canonicalization
CASSCF energy = -119.220715640162


--------------------------------------------------
                 ICMPSPT CALCULATION              
--------------------------------------------------

Perturbation type: MRLCC
With fully internally contracted scheme
With third order correction

Preparing necessary RDMs
......production of RDMs took      35.46 sec
Reading binary 4RDM from DICE
......reading the RDM took         27.81 sec

(GOOD) Trace 4RDM:   7920.0 =   11*   10*    9*    8
(GOOD) Trace 3RDM:    990.0 =   11*   10*    9
(GOOD) Trace 2RDM:    110.0 =   11*   10
(GOOD) Trace 1RDM:     11.0 =   11

Producing the integrals
......production of INT took     167.30 sec

Energy_core =  -117.151604251
Energy      =  -119.22071564

WARNING: Have to use natural orbitals from CAASCF
         offdiagonal elements: 0.691237928576

Basic ingredients written to int/
......savings of INGREDIENTS took      29.52 sec

Second-order:
perturber CCVV --        -0.079219407
perturber CCAV --        -0.044380709
perturber ACVV --        -0.139633358
perturber CCAA --        -0.029319708
perturber AAVV --        -0.194364231
perturber CAAV --        -0.130270952
perturber AAAV --        -0.048994621
perturber AAAC --        -0.001976275
Total:                   -0.668159261

Third-order:              0.001544537

Total PT       --        -0.666614723

