 &FCI NORB=9 ,NELEC=11 ,MS2=5,
  ORBSYM=1,1,1,1,1,1,1,1,1,
  ISYM=1,
 &END
  6.180190652839e-01    1  1  1  1
  3.037818585216e-02    2  1  2  1
  5.819860389065e-01    2  2  1  1
  6.718574513900e-01    2  2  2  2
  3.037818585216e-02    3  1  3  1
  4.617944694740e-12    3  2  2  2
  3.107007292265e-02    3  2  3  2
  5.819860389065e-01    3  3  1  1
  6.097173054242e-01    3  3  2  2
 -4.621763742430e-12    3  3  3  2
  6.718574513900e-01    3  3  3  3
  5.335646987058e-04    4  1  2  2
  2.256326113882e-04    4  1  3  2
 -5.335646987062e-04    4  1  3  3
  4.982682795613e-03    4  1  4  1
  1.021384292084e-03    4  2  2  1
  4.315494342672e-04    4  2  3  1
  2.405264936405e-03    4  2  4  2
  4.315494342670e-04    4  3  2  1
 -1.021384292084e-03    4  3  3  1
  2.405264936405e-03    4  3  4  3
  3.630903023294e-01    4  4  1  1
  3.230614531955e-01    4  4  2  2
  3.230614531955e-01    4  4  3  3
  8.560076394619e-01    4  4  4  4
  2.256326611461e-04    5  1  2  2
 -5.335647224084e-04    5  1  3  2
 -2.256326611462e-04    5  1  3  3
 -7.696235997572e-11    5  1  4  1
  4.982682621578e-03    5  1  5  1
  4.315494515931e-04    5  2  2  1
 -1.021384300319e-03    5  2  3  1
 -1.291064468584e-12    5  2  4  2
  1.153564775465e-03    5  2  4  3
  2.405264933273e-03    5  2  5  2
 -1.021384300319e-03    5  3  2  1
 -4.315494515929e-04    5  3  3  1
 -1.153564775465e-03    5  3  4  2
 -1.291028935352e-12    5  3  4  3
  2.405264933273e-03    5  3  5  3
 -2.968190912170e-11    5  4  1  1
 -1.339695159929e-12    5  4  2  2
 -1.339583453812e-12    5  4  3  3
 -1.081279467197e-11    5  4  4  4
  1.841285279300e-02    5  4  5  4
  3.630903022631e-01    5  5  1  1
  3.230614531929e-01    5  5  2  2
  3.230614531929e-01    5  5  3  3
  8.191819338538e-01    5  5  4  4
 -1.081420256492e-11    5  5  5  4
  8.560076394177e-01    5  5  5  5
  9.912938257361e-03    6  1  1  1
  1.919538386935e-02    6  1  2  2
  1.919538386935e-02    6  1  3  3
 -1.097071349019e-01    6  1  4  4
  4.164472974582e-11    6  1  5  4
 -1.097071348066e-01    6  1  5  5
  3.390741208863e-02    6  1  6  1
  3.601675085404e-03    6  2  2  1
  2.639089091459e-07    6  2  3  1
  6.292374675194e-04    6  2  4  2
  2.675011657054e-04    6  2  4  3
  2.675011781974e-04    6  2  5  2
 -6.292374728604e-04    6  2  5  3
  3.166652768503e-03    6  2  6  2
 -2.639089092651e-07    6  3  2  1
  3.601675085404e-03    6  3  3  1
  2.675011657054e-04    6  3  4  2
 -6.292374675195e-04    6  3  4  3
 -6.292374728603e-04    6  3  5  2
 -2.675011781976e-04    6  3  5  3
  3.166652768503e-03    6  3  6  3
  2.145626296196e-03    6  4  2  2
  9.106833847226e-04    6  4  3  2
 -2.145626296196e-03    6  4  3  3
 -8.555419615040e-03    6  4  4  1
 -6.389659428687e-08    6  4  5  1
  3.327363531934e-02    6  4  6  4
  9.106834390041e-04    6  5  2  2
 -2.145626320948e-03    6  5  3  2
 -9.106834390041e-04    6  5  3  3
  6.410325695883e-08    6  5  4  1
 -8.555419378540e-03    6  5  5  1
  4.995980070367e-10    6  5  6  4
  3.327363646874e-02    6  5  6  5
  3.649056298196e-01    6  6  1  1
  3.242001410512e-01    6  6  2  2
  3.242001410512e-01    6  6  3  3
  6.987408498543e-01    6  6  4  4
  2.049892025447e-10    6  6  5  4
  6.987408503263e-01    6  6  5  5
 -1.043274676656e-01    6  6  6  1
  6.828847405079e-01    6  6  6  6
 -3.797145991409e-03    7  1  2  1
  1.877333702351e-03    7  1  3  1
  8.148654319039e-04    7  1  4  2
  9.486381013691e-04    7  1  4  3
  9.486381174243e-04    7  1  5  2
 -8.148654316519e-04    7  1  5  3
 -8.094894117126e-04    7  1  6  2
  4.008471238781e-04    7  1  6  3
  6.326476503537e-03    7  1  7  1
 -4.146427958058e-02    7  2  1  1
 -6.717957155694e-02    7  2  2  2
  2.760491786883e-03    7  2  3  2
 -5.601579624268e-02    7  2  3  3
 -4.842040651165e-04    7  2  4  1
  8.736258590894e-02    7  2  4  4
 -5.627120328254e-04    7  2  5  1
  8.736258590601e-02    7  2  5  5
 -2.619183498931e-02    7  2  6  1
  1.927077036525e-03    7  2  6  4
  2.240158095334e-03    7  2  6  5
  7.486867370214e-02    7  2  6  6
  3.410037698964e-02    7  2  7  2
  2.049818088527e-02    7  3  1  1
  2.769404899939e-02    7  3  2  2
 -5.581887649101e-03    7  3  3  2
  3.321503259039e-02    7  3  3  3
 -5.627121013406e-04    7  3  4  1
 -4.320244332208e-02    7  3  4  4
  4.842040659815e-04    7  3  5  1
  2.348980775832e-12    7  3  5  4
 -4.320244332429e-02    7  3  5  5
  1.295121750802e-02    7  3  6  1
  2.240158001607e-03    7  3  6  4
 -1.927077037863e-03    7  3  6  5
 -3.702377928084e-02    7  3  6  6
 -1.535558461681e-02    7  3  7  2
  1.063712156658e-02    7  3  7  3
  1.463398214434e-03    7  4  2  1
  1.701407177339e-03    7  4  3  1
  5.677566813805e-03    7  4  4  2
 -2.807964091287e-03    7  4  4  3
 -1.290383959954e-03    7  4  5  2
 -2.609105521984e-03    7  4  5  3
 -7.034929260752e-04    7  4  6  2
 -8.181518992806e-04    7  4  6  3
  5.409307509188e-04    7  4  7  1
  3.231342279351e-02    7  4  7  4
  1.701407194633e-03    7  5  2  1
 -1.463398214710e-03    7  5  3  1
  1.290383957099e-03    7  5  4  2
  2.609105533616e-03    7  5  4  3
  5.677566805033e-03    7  5  5  2
 -2.807964094957e-03    7  5  5  3
 -8.181518751946e-04    7  5  6  2
  7.034929258545e-04    7  5  6  3
  2.107348346150e-03    7  5  7  1
  5.145145859137e-12    7  5  7  4
  3.231342281939e-02    7  5  7  5
 -2.520985276391e-03    7  6  2  1
  1.246642907915e-03    7  6  3  1
 -9.787743164894e-04    7  6  4  2
 -1.137277219824e-03    7  6  4  3
 -1.137277191515e-03    7  6  5  2
  9.787743161908e-04    7  6  5  3
  2.747846726201e-03    7  6  6  2
 -1.358456218552e-03    7  6  6  3
 -3.571657718690e-03    7  6  7  1
 -1.715399344390e-03    7  6  7  4
 -6.686426506217e-03    7  6  7  5
  1.990180955975e-02    7  6  7  6
  3.882787233627e-01    7  7  1  1
  3.512100169285e-01    7  7  2  2
 -3.480178909221e-03    7  7  3  2
  3.458917246114e-01    7  7  3  3
 -1.241243950181e-03    7  7  4  1
  7.715524633886e-01    7  7  4  4
 -4.839902979864e-03    7  7  5  1
  3.200665357231e-12    7  7  5  4
  7.715524634025e-01    7  7  5  5
 -1.099694297966e-01    7  7  6  1
  3.821358091524e-03    7  7  6  4
  1.489771012324e-02    7  7  6  5
  7.062547410583e-01    7  7  6  6
  8.945334983741e-02    7  7  7  2
 -4.423688994511e-02    7  7  7  3
  8.185937212378e-01    7  7  7  7
 -1.877333702352e-03    8  1  2  1
 -3.797145991409e-03    8  1  3  1
  9.486381013688e-04    8  1  4  2
 -8.148654319038e-04    8  1  4  3
 -8.148654316520e-04    8  1  5  2
 -9.486381174246e-04    8  1  5  3
 -4.008471238781e-04    8  1  6  2
 -8.094894117126e-04    8  1  6  3
  2.107348267067e-03    8  1  7  4
 -5.409307116740e-04    8  1  7  5
  1.079180393124e-07    8  1  7  6
  6.326476503537e-03    8  1  8  1
 -2.049818088527e-02    8  2  1  1
 -3.321503259039e-02    8  2  2  2
 -5.581887649100e-03    8  2  3  2
 -2.769404899939e-02    8  2  3  3
 -5.627121013400e-04    8  2  4  1
  4.320244332208e-02    8  2  4  4
  4.842040659818e-04    8  2  5  1
 -2.348924312315e-12    8  2  5  4
  4.320244332430e-02    8  2  5  5
 -1.295121750803e-02    8  2  6  1
  2.240158001608e-03    8  2  6  4
 -1.927077037863e-03    8  2  6  5
  3.702377928084e-02    8  2  6  6
  1.535558462342e-02    8  2  7  2
 -4.548046754003e-03    8  2  7  3
  3.932249328377e-02    8  2  7  7
  1.063712156658e-02    8  2  8  2
 -4.146427958058e-02    8  3  1  1
 -5.601579624268e-02    8  3  2  2
 -2.760491786882e-03    8  3  3  2
 -6.717957155694e-02    8  3  3  3
  4.842040651179e-04    8  3  4  1
  8.736258590894e-02    8  3  4  4
  5.627120328259e-04    8  3  5  1
  8.736258590600e-02    8  3  5  5
 -2.619183498931e-02    8  3  6  1
 -1.927077036524e-03    8  3  6  4
 -2.240158095334e-03    8  3  6  5
  7.486867370214e-02    8  3  6  6
  2.801130218973e-02    8  3  7  2
 -1.535558462342e-02    8  3  7  3
  7.951671292432e-02    8  3  7  7
  1.535558461681e-02    8  3  8  2
  3.410037698964e-02    8  3  8  3
  1.701407177339e-03    8  4  2  1
 -1.463398214434e-03    8  4  3  1
  2.807964091287e-03    8  4  4  2
  5.677566813805e-03    8  4  4  3
  2.609105521984e-03    8  4  5  2
 -1.290383959954e-03    8  4  5  3
 -8.181518992805e-04    8  4  6  2
  7.034929260753e-04    8  4  6  3
  2.107348267067e-03    8  4  7  1
  1.444080538569e-02    8  4  7  5
 -6.686426620699e-03    8  4  7  6
 -5.409307509187e-04    8  4  8  1
  3.231342279351e-02    8  4  8  4
 -1.463398214710e-03    8  5  2  1
 -1.701407194633e-03    8  5  3  1
 -2.609105533616e-03    8  5  4  2
  1.290383957099e-03    8  5  4  3
  2.807964094957e-03    8  5  5  2
  5.677566805033e-03    8  5  5  3
  7.034929258543e-04    8  5  6  2
  8.181518751948e-04    8  5  6  3
 -5.409307116740e-04    8  5  7  1
 -1.444080538569e-02    8  5  7  4
  1.715399401706e-03    8  5  7  6
 -2.107348346150e-03    8  5  8  1
  5.144729891103e-12    8  5  8  4
  3.231342281939e-02    8  5  8  5
 -1.246642907915e-03    8  6  2  1
 -2.520985276391e-03    8  6  3  1
 -1.137277219825e-03    8  6  4  2
  9.787743164895e-04    8  6  4  3
  9.787743161911e-04    8  6  5  2
  1.137277191515e-03    8  6  5  3
  1.358456218552e-03    8  6  6  2
  2.747846726201e-03    8  6  6  3
 -1.079180390963e-07    8  6  7  1
 -6.686426620699e-03    8  6  7  4
  1.715399401707e-03    8  6  7  5
 -3.571657718690e-03    8  6  8  1
  1.715399344391e-03    8  6  8  4
  6.686426506217e-03    8  6  8  5
  1.990180955975e-02    8  6  8  6
  3.480178916461e-03    8  7  2  2
  2.659146164365e-03    8  7  3  2
 -3.480178916460e-03    8  7  3  3
 -4.839903283174e-03    8  7  4  1
  1.241244105625e-03    8  7  5  1
  1.489770965419e-02    8  7  6  4
 -3.821357865034e-03    8  7  6  5
  2.457198329453e-03    8  7  7  2
  4.968318471978e-03    8  7  7  3
 -1.090219841690e-11    8  7  7  7
  4.968318471978e-03    8  7  8  2
 -2.457198329453e-03    8  7  8  3
  3.139254602824e-02    8  7  8  7
  3.882787233627e-01    8  8  1  1
  3.458917246114e-01    8  8  2  2
  3.480178909224e-03    8  8  3  2
  3.512100169285e-01    8  8  3  3
  1.241243950187e-03    8  8  4  1
  7.715524633886e-01    8  8  4  4
  4.839902979866e-03    8  8  5  1
  3.201656574826e-12    8  8  5  4
  7.715524634025e-01    8  8  5  5
 -1.099694297966e-01    8  8  6  1
 -3.821358091521e-03    8  8  6  4
 -1.489771012323e-02    8  8  6  5
  7.062547410583e-01    8  8  6  6
  7.951671292432e-02    8  8  7  2
 -3.932249328377e-02    8  8  7  3
  7.558086291650e-01    8  8  7  7
  4.423688994512e-02    8  8  8  2
  8.945334983740e-02    8  8  8  3
  1.089980565003e-11    8  8  8  7
  8.185937212378e-01    8  8  8  8
  1.694527465724e-01    9  1  1  1
  1.676506590009e-01    9  1  2  2
  1.676506590009e-01    9  1  3  3
 -6.416855980422e-02    9  1  4  4
 -2.755361248807e-11    9  1  5  4
 -6.416855986698e-02    9  1  5  5
  3.542326239183e-02    9  1  6  1
 -5.097036951427e-02    9  1  6  6
 -4.551963274814e-02    9  1  7  2
  2.250606725619e-02    9  1  7  3
 -5.148386869964e-02    9  1  7  7
 -2.250606725619e-02    9  1  8  2
 -4.551963274814e-02    9  1  8  3
 -5.148386869964e-02    9  1  8  8
  1.148961710765e-01    9  1  9  1
  1.243081277830e-02    9  2  2  1
 -8.838944315571e-08    9  2  3  1
  3.746745321749e-04    9  2  4  2
  1.601989070250e-04    9  2  4  3
  1.601989300920e-04    9  2  5  2
 -3.746745435991e-04    9  2  5  3
  2.604666891456e-03    9  2  6  2
  3.003202853570e-07    9  2  6  3
 -2.345049615529e-03    9  2  7  1
 -1.474332252727e-04    9  2  7  4
 -1.705508458863e-04    9  2  7  5
  2.860046318328e-04    9  2  7  6
 -1.160060610046e-03    9  2  8  1
 -1.705508857663e-04    9  2  8  4
  1.474332255097e-04    9  2  8  5
  1.416898876796e-04    9  2  8  6
  8.605358344054e-03    9  2  9  2
  8.838944295189e-08    9  3  2  1
  1.243081277830e-02    9  3  3  1
  1.601989070249e-04    9  3  4  2
 -3.746745321752e-04    9  3  4  3
 -3.746745435990e-04    9  3  5  2
 -1.601989300924e-04    9  3  5  3
 -3.003202852537e-07    9  3  6  2
  2.604666891456e-03    9  3  6  3
  1.160060610045e-03    9  3  7  1
 -1.705508857661e-04    9  3  7  4
  1.474332255096e-04    9  3  7  5
 -1.416898876797e-04    9  3  7  6
 -2.345049615529e-03    9  3  8  1
  1.474332252726e-04    9  3  8  4
  1.705508458861e-04    9  3  8  5
  2.860046318327e-04    9  3  8  6
  8.605358344055e-03    9  3  9  3
 -1.008322475377e-04    9  4  2  2
 -4.219479882923e-05    9  4  3  2
  1.008322475346e-04    9  4  3  3
 -6.077648537925e-03    9  4  4  1
  1.590786692847e-08    9  4  5  1
  8.210644146977e-03    9  4  6  4
 -1.135841076305e-07    9  4  6  5
  5.776585219471e-04    9  4  7  2
  6.720919814006e-04    9  4  7  3
  1.112604029573e-03    9  4  7  7
  6.720919814001e-04    9  4  8  2
 -5.776585219481e-04    9  4  8  3
  4.338716695861e-03    9  4  8  7
 -1.112604029581e-03    9  4  8  8
  8.972246712819e-03    9  4  9  4
 -4.219470296714e-05    9  5  2  2
  1.008321996594e-04    9  5  3  2
  4.219470296546e-05    9  5  3  3
 -1.603370639206e-08    9  5  4  1
 -6.077648682917e-03    9  5  5  1
  1.144896986191e-07    9  5  6  4
  8.210645186875e-03    9  5  6  5
  6.720921425783e-04    9  5  7  2
 -5.776585211533e-04    9  5  7  3
  4.338717440261e-03    9  5  7  7
 -5.776585211536e-04    9  5  8  2
 -6.720921425788e-04    9  5  8  3
 -1.112603657257e-03    9  5  8  7
 -4.338717440266e-03    9  5  8  8
  1.769099418117e-10    9  5  9  4
  8.972247114597e-03    9  5  9  5
  7.550165590030e-02    9  6  1  1
  6.270109453291e-02    9  6  2  2
  6.270109453291e-02    9  6  3  3
  1.349171013958e-01    9  6  4  4
  1.825398544659e-10    9  6  5  4
  1.349171018156e-01    9  6  5  5
 -3.073968668915e-02    9  6  6  1
  1.336837406867e-01    9  6  6  6
  1.408724637275e-02    9  6  7  2
 -6.968505826096e-03    9  6  7  3
  1.447751788031e-01    9  6  7  7
  6.968505826097e-03    9  6  8  2
  1.408724637275e-02    9  6  8  3
  1.447751788031e-01    9  6  8  8
  6.745377641156e-03    9  6  9  1
  5.557025028756e-02    9  6  9  6
 -3.799977628045e-03    9  7  2  1
  1.878967208243e-03    9  7  3  1
 -2.946122460107e-04    9  7  4  2
 -3.417480816526e-04    9  7  4  3
 -3.417480390708e-04    9  7  5  2
  2.946122466367e-04    9  7  5  3
  9.536171978980e-04    9  7  6  2
 -4.717294385149e-04    9  7  6  3
 -4.125668718479e-03    9  7  7  1
 -1.235465712750e-03    9  7  7  4
 -4.815226445645e-03    9  7  7  5
  4.841349141347e-03    9  7  7  6
  5.717900746838e-08    9  7  8  1
 -4.815226625912e-03    9  7  8  4
  1.235465804592e-03    9  7  8  5
 -6.793369145721e-08    9  7  8  6
 -6.360632540879e-04    9  7  9  2
  3.146538804332e-04    9  7  9  3
  1.090824532769e-02    9  7  9  7
 -1.878967208243e-03    9  8  2  1
 -3.799977628045e-03    9  8  3  1
 -3.417480816527e-04    9  8  4  2
  2.946122460105e-04    9  8  4  3
  2.946122466367e-04    9  8  5  2
  3.417480390706e-04    9  8  5  3
  4.717294385149e-04    9  8  6  2
  9.536171978980e-04    9  8  6  3
 -5.717900739555e-08    9  8  7  1
 -4.815226625912e-03    9  8  7  4
  1.235465804592e-03    9  8  7  5
  6.793369111466e-08    9  8  7  6
 -4.125668718479e-03    9  8  8  1
  1.235465712750e-03    9  8  8  4
  4.815226445645e-03    9  8  8  5
  4.841349141347e-03    9  8  8  6
 -3.146538804331e-04    9  8  9  2
 -6.360632540879e-04    9  8  9  3
  1.090824532769e-02    9  8  9  8
  3.511283049889e-01    9  9  1  1
  3.234992062844e-01    9  9  2  2
  3.234992062844e-01    9  9  3  3
  4.044015964402e-01    9  9  4  4
  7.778043237637e-11    9  9  5  4
  4.044015966150e-01    9  9  5  5
 -2.643349453457e-02    9  9  6  1
  3.929613670500e-01    9  9  6  6
  1.606088899574e-02    9  9  7  2
 -7.941985148780e-03    9  9  7  3
  4.122120920138e-01    9  9  7  7
  7.941985148781e-03    9  9  8  2
  1.606088899574e-02    9  9  8  3
  4.122120920138e-01    9  9  8  8
  6.555884534625e-03    9  9  9  1
  4.963220782660e-02    9  9  9  6
  3.369428455124e-01    9  9  9  9
 -4.999490320586e+00    1  1  0  0
 -4.902453330183e+00    2  2  0  0
 -4.902453330183e+00    3  3  0  0
 -5.588920973140e+00    4  4  0  0
 -5.415983932185e-12    5  4  0  0
 -5.588920973175e+00    5  5  0  0
  4.820596550866e-01    6  1  0  0
 -5.186872512177e+00    6  6  0  0
 -1.911509758928e-01    7  2  0  0
  9.455851686912e-02    7  3  0  0
 -5.583205433140e+00    7  7  0  0
 -9.455851686912e-02    8  2  0  0
 -1.911509758928e-01    8  3  0  0
 -5.583205433140e+00    8  8  0  0
 -4.874092013875e-01    9  1  0  0
 -8.688659436779e-01    9  6  0  0
 -3.741473889196e+00    9  9  0  0
    -88.242286394012   0  0  0  0
