#INFO: **** input file is /projects/bamu3429/BENCHMARK/fresh_atoms/MRPT/vqz/monoxides/MnO/mrpt.py ****
import json
from pyscf import gto,scf,mcscf, fci, lo, ci, cc
from pyscf.scf import ROHF, UHF,ROKS
import numpy as np
import pandas as pd

# THIS IS WERE IT STARTS ====================================

df=json.load(open("../../../trail.json"))

spins={'ScO':1, 'TiO':2, 'VO':3, 'CrO':4, 'MnO':5, 'FeO':4, 'CuO':1}

nd={'Sc':(1,0), 'Ti':(2,0), 'V':(3,0), 'Cr':(5,0), 'Mn':(5,0), 'Fe':(5,1), 'Cu':(5,4)}

cas={'Sc':3, 'Ti':4, 'V':5, 'Cr':6, 'Mn':7, 'Fe':8, 'Cu':11}

re={'ScO':1.668, 'TiO':1.623, 'VO':1.591, 'CrO':1.621, 'MnO':1.648, 'FeO':1.616, 'CuO':1.725}

datacsv={}
for nm in ['basis','charge','method','molecule','pseudopotential',
           'totalenergy','totalenergy-stocherr','totalenergy-syserr']:
  datacsv[nm]=[]

basis='vqz'
element='Mn'

mol=gto.Mole()
mol.ecp={}
mol.basis={}
for el in [element,'O']:
  mol.ecp[el]=gto.basis.parse_ecp(df[el]['ecp'])
  mol.basis[el]=gto.basis.parse(df[el][basis])
mol.charge=0
mol.spin=spins[element+'O']
mol.build(atom="%s 0. 0. 0.; O 0. 0. %g"%(element,re[element+'O']),verbose=4)

m=ROHF(mol)
m.level_shift=1000.0
dm=m.from_chk("../../../../HF/monoxides/"+element+basis+"0.chk")
hf=m.kernel(dm)
m.analyze()

from pyscf.shciscf import shci
mc = shci.SHCISCF(m, 9, 4+cas[element])
#mc.fcisolver.conv_tol = 1e-14
mc.fcisolver.mpiprefix="mpirun -np 28"
mc.fcisolver.num_thrds=12
mc.verbose = 4
cas=mc.kernel()[0]
 
from pyscf.icmpspt import icmpspt
pt=icmpspt.icmpspt(mc,rdmM=500, PTM=1000,\
                          pttype="MRLCC",\
                          third_order=True,\
                          fully_ic=True,\
                          do_dm4=True)

datacsv['basis'].append(basis)
datacsv['charge'].append(0)
datacsv['method'].append('MRPT')
datacsv['molecule'].append(element)
datacsv['pseudopotential'].append('trail')
datacsv['totalenergy'].append(cas+pt)
datacsv['totalenergy-stocherr'].append(0.0)
datacsv['totalenergy-syserr'].append(0.0)
pd.DataFrame(datacsv).to_csv(element+".csv",index=False)

#INFO: ******************** input file end ********************


System: ('Linux', 'bnode0306.rc.int.colorado.edu', '3.10.0-514.41.1.el7.x86_64', '#1 SMP Wed Jan 17 10:26:16 EST 2018', 'x86_64', 'x86_64')  Threads 1
Python 2.7.11 (default, Mar 22 2016, 01:42:54) 
[GCC Intel(R) C++ gcc 4.8 mode]
numpy 1.11.1  scipy 0.17.1
Date: Tue Mar 27 15:29:24 2018
PySCF version 1.4
PySCF path  /projects/bamu3429/softwares/pyscf_uptodate/pyscf
GIT ORIG_HEAD e2292e6edec2b0e0024c21b81de03db1d7bd4121
GIT HEAD      ref: refs/heads/master
GIT master branch  f3591ef22170896a4cdc2aadaa6f5da388ffcadb

[INPUT] VERBOSE 4
[INPUT] num atoms = 2
[INPUT] num electrons = 21
[INPUT] charge = 0
[INPUT] spin (= nelec alpha-beta = 2S) = 5
[INPUT] symmetry False subgroup None
[INPUT]  1 Mn     0.000000000000   0.000000000000   0.000000000000 AA    0.000000000000   0.000000000000   0.000000000000 Bohr
[INPUT]  2 O      0.000000000000   0.000000000000   1.648000000000 AA    0.000000000000   0.000000000000   3.114268653283 Bohr
[INPUT] ---------------- BASIS SET ---------------- 
[INPUT] l, kappa, [nprim/nctr], expnt,             c_1 c_2 ...
[INPUT] Mn
[INPUT] 0    0    [12   /1   ]  41.19094709       0.0124
                                21.94503151       -0.141461
                                12.89081507       0.669584
                                8.14876869        -1.015431
                                3.94904809        0.149151
                                1.91298055        0.350677
                                1.10736282        0.627006
                                0.4793266         0.235349
                                0.22675293        -0.024214
                                0.10639652        0.017357
                                0.05000494        -0.005272
                                0.0234982         0.002181
[INPUT] 0    0    [12   /1   ]  41.19094709       -0.002036
                                21.94503151       0.02709
                                12.89081507       -0.142056
                                8.14876869        0.229945
                                3.94904809        -0.035538
                                1.91298055        -0.085336
                                1.10736282        -0.24355
                                0.4793266         -0.201798
                                0.22675293        0.098761
                                0.10639652        0.439512
                                0.05000494        0.524416
                                0.0234982         0.13192
[INPUT] 0    0    [12   /1   ]  41.19094709       -0.004856
                                21.94503151       0.092685
                                12.89081507       -0.597148
                                8.14876869        1.137589
                                3.94904809        -0.390492
                                1.91298055        -1.331371
                                1.10736282        0.125193
                                0.4793266         0.729164
                                0.22675293        0.739266
                                0.10639652        0.030588
                                0.05000494        -0.566618
                                0.0234982         -0.237417
[INPUT] 0    0    [12   /1   ]  41.19094709       -0.003183
                                21.94503151       0.098456
                                12.89081507       -0.758579
                                8.14876869        1.655936
                                3.94904809        -1.068093
                                1.91298055        -2.224521
                                1.10736282        2.10545
                                0.4793266         1.414254
                                0.22675293        -1.498426
                                0.10639652        -0.857745
                                0.05000494        0.64559
                                0.0234982         0.522893
[INPUT] 0    0    [12   /1   ]  41.19094709       -0.005669
                                21.94503151       -0.072371
                                12.89081507       1.009725
                                8.14876869        -2.847369
                                3.94904809        3.982552
                                1.91298055        -0.244007
                                1.10736282        -3.839613
                                0.4793266         2.775896
                                0.22675293        0.937737
                                0.10639652        -2.238269
                                0.05000494        0.096996
                                0.0234982         0.900173
[INPUT] 0    0    [1    /1   ]  0.0234982            1
[INPUT] 0    0    [1    /1   ]  0.01104221           1
[INPUT] 1    0    [12   /1   ]  60.1913049        0.000757
                                31.1792672        -0.006538
                                16.24276866       0.042902
                                8.80021485        -0.164602
                                5.33575038        0.099387
                                3.0325056         0.217723
                                1.63861968        0.443669
                                0.80258711        0.32785
                                0.40627833        0.098641
                                0.17382998        0.011768
                                0.07306386        -0.000703
                                0.03071005        0.000403
[INPUT] 1    0    [12   /1   ]  60.1913049        -0.000118
                                31.1792672        0.001208
                                16.24276866       -0.009122
                                8.80021485        0.038924
                                5.33575038        -0.027473
                                3.0325056         -0.058215
                                1.63861968        -0.124371
                                0.80258711        -0.107355
                                0.40627833        0.040741
                                0.17382998        0.350952
                                0.07306386        0.523294
                                0.03071005        0.234255
[INPUT] 1    0    [12   /1   ]  60.1913049        -0.000139
                                31.1792672        -0.00242
                                16.24276866       0.038793
                                8.80021485        -0.243459
                                5.33575038        0.194569
                                3.0325056         0.842216
                                1.63861968        0.066699
                                0.80258711        -0.892913
                                0.40627833        -0.392543
                                0.17382998        0.60286
                                0.07306386        0.393012
                                0.03071005        0.007885
[INPUT] 1    0    [12   /1   ]  60.1913049        -0.000398
                                31.1792672        -0.002431
                                16.24276866       0.06499
                                8.80021485        -0.561344
                                5.33575038        1.083365
                                3.0325056         0.923337
                                1.63861968        -1.661685
                                0.80258711        -0.597311
                                0.40627833        1.567186
                                0.17382998        -0.097993
                                0.07306386        -0.65828
                                0.03071005        -0.003976
[INPUT] 1    0    [12   /1   ]  60.1913049        -0.006402
                                31.1792672        0.03287
                                16.24276866       -0.058877
                                8.80021485        -0.69608
                                5.33575038        3.097068
                                3.0325056         -2.128644
                                1.63861968        -1.540559
                                0.80258711        2.934562
                                0.40627833        -1.1907
                                0.17382998        -0.89455
                                0.07306386        0.961804
                                0.03071005        -0.004278
[INPUT] 1    0    [1    /1   ]  0.03071005           1
[INPUT] 1    0    [1    /1   ]  0.01290798           1
[INPUT] 2    0    [10   /1   ]  52.56900844       0.000307
                                23.81654224       -0.007961
                                11.32693504       0.114253
                                4.99176622        0.164228
                                2.46839125        0.269996
                                1.15974738        0.320627
                                0.53124091        0.273188
                                0.24220121        0.161357
                                0.11248934        0.058244
                                0.05201371        0.009574
[INPUT] 2    0    [10   /1   ]  52.56900844       0.000337
                                23.81654224       0.004956
                                11.32693504       -0.107195
                                4.99176622        -0.206571
                                2.46839125        -0.366595
                                1.15974738        -0.092317
                                0.53124091        0.265958
                                0.24220121        0.408928
                                0.11248934        0.279128
                                0.05201371        0.068593
[INPUT] 2    0    [10   /1   ]  52.56900844       -0.002325
                                23.81654224       0.003859
                                11.32693504       0.104269
                                4.99176622        0.404616
                                2.46839125        0.341311
                                1.15974738        -0.607186
                                0.53124091        -0.484076
                                0.24220121        0.257285
                                0.11248934        0.465281
                                0.05201371        0.134253
[INPUT] 2    0    [10   /1   ]  52.56900844       -0.001087
                                23.81654224       -0.007049
                                11.32693504       0.271774
                                4.99176622        0.883987
                                2.46839125        -0.93145
                                1.15974738        -0.608336
                                0.53124091        0.93983
                                0.24220121        0.109829
                                0.11248934        -0.447095
                                0.05201371        -0.157185
[INPUT] 2    0    [1    /1   ]  0.05201371           1
[INPUT] 2    0    [1    /1   ]  0.02405051           1
[INPUT] 3    0    [1    /1   ]  4.240921             1
[INPUT] 3    0    [1    /1   ]  1.457367             1
[INPUT] 3    0    [1    /1   ]  0.500814             1
[INPUT] 3    0    [1    /1   ]  0.17210123           1
[INPUT] 4    0    [1    /1   ]  4.129721             1
[INPUT] 4    0    [1    /1   ]  1.439666             1
[INPUT] 4    0    [1    /1   ]  0.50188333           1
[INPUT] 5    0    [1    /1   ]  3.445174             1
[INPUT] 5    0    [1    /1   ]  1.20102538           1
[INPUT] O
[INPUT] 0    0    [10   /1   ]  57.663349         -0.002794
                                35.726816         0.023976
                                22.453757         -0.115974
                                14.732301         0.288033
                                9.739917          -0.274786
                                5.042008          -0.083789
                                2.157818          0.063778
                                1.002916          0.410182
                                0.421839          0.504044
                                0.173041          0.172152
[INPUT] 0    0    [1    /1   ]  1.70747              1
[INPUT] 0    0    [1    /1   ]  0.617491             1
[INPUT] 0    0    [1    /1   ]  0.223309             1
[INPUT] 0    0    [1    /1   ]  0.084592             1
[INPUT] 1    0    [10   /1   ]  52.47406          -0.000522
                                32.138432         0.004857
                                19.458579         -0.027749
                                11.839344         0.074258
                                7.91003           0.014369
                                3.670858          0.153479
                                1.53966           0.283685
                                0.647119          0.358201
                                0.267853          0.29559
                                0.107198          0.104889
[INPUT] 1    0    [1    /1   ]  1.345435             1
[INPUT] 1    0    [1    /1   ]  0.458358             1
[INPUT] 1    0    [1    /1   ]  0.156151             1
[INPUT] 1    0    [1    /1   ]  0.045837             1
[INPUT] 2    0    [1    /1   ]  3.661538             1
[INPUT] 2    0    [1    /1   ]  1.279275             1
[INPUT] 2    0    [1    /1   ]  0.446952             1
[INPUT] 2    0    [1    /1   ]  0.148191             1
[INPUT] 3    0    [1    /1   ]  2.598839             1
[INPUT] 3    0    [1    /1   ]  0.849032             1
[INPUT] 3    0    [1    /1   ]  0.310222             1
[INPUT] 4    0    [1    /1   ]  1.838653             1
[INPUT] 4    0    [1    /1   ]  0.706784             1
nuclear repulsion = 28.8992408876214
number of shells = 48
number of NR pGTOs = 650
number of NR cGTOs = 214
basis = {'Mn': [[0, [41.19094709, 0.0124], [21.94503151, -0.141461], [12.89081507, 0.669584], [8.14876869, -1.015431], [3.94904809, 0.149151], [1.91298055, 0.350677], [1.10736282, 0.627006], [0.4793266, 0.235349], [0.22675293, -0.024214], [0.10639652, 0.017357], [0.05000494, -0.005272], [0.0234982, 0.002181]], [0, [41.19094709, -0.002036], [21.94503151, 0.02709], [12.89081507, -0.142056], [8.14876869, 0.229945], [3.94904809, -0.035538], [1.91298055, -0.085336], [1.10736282, -0.24355], [0.4793266, -0.201798], [0.22675293, 0.098761], [0.10639652, 0.439512], [0.05000494, 0.524416], [0.0234982, 0.13192]], [0, [41.19094709, -0.004856], [21.94503151, 0.092685], [12.89081507, -0.597148], [8.14876869, 1.137589], [3.94904809, -0.390492], [1.91298055, -1.331371], [1.10736282, 0.125193], [0.4793266, 0.729164], [0.22675293, 0.739266], [0.10639652, 0.030588], [0.05000494, -0.566618], [0.0234982, -0.237417]], [0, [41.19094709, -0.003183], [21.94503151, 0.098456], [12.89081507, -0.758579], [8.14876869, 1.655936], [3.94904809, -1.068093], [1.91298055, -2.224521], [1.10736282, 2.10545], [0.4793266, 1.414254], [0.22675293, -1.498426], [0.10639652, -0.857745], [0.05000494, 0.64559], [0.0234982, 0.522893]], [0, [41.19094709, -0.005669], [21.94503151, -0.072371], [12.89081507, 1.009725], [8.14876869, -2.847369], [3.94904809, 3.982552], [1.91298055, -0.244007], [1.10736282, -3.839613], [0.4793266, 2.775896], [0.22675293, 0.937737], [0.10639652, -2.238269], [0.05000494, 0.096996], [0.0234982, 0.900173]], [0, [0.0234982, 1.0]], [0, [0.01104221, 1.0]], [1, [60.1913049, 0.000757], [31.1792672, -0.006538], [16.24276866, 0.042902], [8.80021485, -0.164602], [5.33575038, 0.099387], [3.0325056, 0.217723], [1.63861968, 0.443669], [0.80258711, 0.32785], [0.40627833, 0.098641], [0.17382998, 0.011768], [0.07306386, -0.000703], [0.03071005, 0.000403]], [1, [60.1913049, -0.000118], [31.1792672, 0.001208], [16.24276866, -0.009122], [8.80021485, 0.038924], [5.33575038, -0.027473], [3.0325056, -0.058215], [1.63861968, -0.124371], [0.80258711, -0.107355], [0.40627833, 0.040741], [0.17382998, 0.350952], [0.07306386, 0.523294], [0.03071005, 0.234255]], [1, [60.1913049, -0.000139], [31.1792672, -0.00242], [16.24276866, 0.038793], [8.80021485, -0.243459], [5.33575038, 0.194569], [3.0325056, 0.842216], [1.63861968, 0.066699], [0.80258711, -0.892913], [0.40627833, -0.392543], [0.17382998, 0.60286], [0.07306386, 0.393012], [0.03071005, 0.007885]], [1, [60.1913049, -0.000398], [31.1792672, -0.002431], [16.24276866, 0.06499], [8.80021485, -0.561344], [5.33575038, 1.083365], [3.0325056, 0.923337], [1.63861968, -1.661685], [0.80258711, -0.597311], [0.40627833, 1.567186], [0.17382998, -0.097993], [0.07306386, -0.65828], [0.03071005, -0.003976]], [1, [60.1913049, -0.006402], [31.1792672, 0.03287], [16.24276866, -0.058877], [8.80021485, -0.69608], [5.33575038, 3.097068], [3.0325056, -2.128644], [1.63861968, -1.540559], [0.80258711, 2.934562], [0.40627833, -1.1907], [0.17382998, -0.89455], [0.07306386, 0.961804], [0.03071005, -0.004278]], [1, [0.03071005, 1.0]], [1, [0.01290798, 1.0]], [2, [52.56900844, 0.000307], [23.81654224, -0.007961], [11.32693504, 0.114253], [4.99176622, 0.164228], [2.46839125, 0.269996], [1.15974738, 0.320627], [0.53124091, 0.273188], [0.24220121, 0.161357], [0.11248934, 0.058244], [0.05201371, 0.009574]], [2, [52.56900844, 0.000337], [23.81654224, 0.004956], [11.32693504, -0.107195], [4.99176622, -0.206571], [2.46839125, -0.366595], [1.15974738, -0.092317], [0.53124091, 0.265958], [0.24220121, 0.408928], [0.11248934, 0.279128], [0.05201371, 0.068593]], [2, [52.56900844, -0.002325], [23.81654224, 0.003859], [11.32693504, 0.104269], [4.99176622, 0.404616], [2.46839125, 0.341311], [1.15974738, -0.607186], [0.53124091, -0.484076], [0.24220121, 0.257285], [0.11248934, 0.465281], [0.05201371, 0.134253]], [2, [52.56900844, -0.001087], [23.81654224, -0.007049], [11.32693504, 0.271774], [4.99176622, 0.883987], [2.46839125, -0.93145], [1.15974738, -0.608336], [0.53124091, 0.93983], [0.24220121, 0.109829], [0.11248934, -0.447095], [0.05201371, -0.157185]], [2, [0.05201371, 1.0]], [2, [0.02405051, 1.0]], [3, [4.240921, 1.0]], [3, [1.457367, 1.0]], [3, [0.500814, 1.0]], [3, [0.17210123, 1.0]], [4, [4.129721, 1.0]], [4, [1.439666, 1.0]], [4, [0.50188333, 1.0]], [5, [3.445174, 1.0]], [5, [1.20102538, 1.0]]], 'O': [[0, [57.663349, -0.002794], [35.726816, 0.023976], [22.453757, -0.115974], [14.732301, 0.288033], [9.739917, -0.274786], [5.042008, -0.083789], [2.157818, 0.063778], [1.002916, 0.410182], [0.421839, 0.504044], [0.173041, 0.172152]], [0, [1.70747, 1.0]], [0, [0.617491, 1.0]], [0, [0.223309, 1.0]], [0, [0.084592, 1.0]], [1, [52.47406, -0.000522], [32.138432, 0.004857], [19.458579, -0.027749], [11.839344, 0.074258], [7.91003, 0.014369], [3.670858, 0.153479], [1.53966, 0.283685], [0.647119, 0.358201], [0.267853, 0.29559], [0.107198, 0.104889]], [1, [1.345435, 1.0]], [1, [0.458358, 1.0]], [1, [0.156151, 1.0]], [1, [0.045837, 1.0]], [2, [3.661538, 1.0]], [2, [1.279275, 1.0]], [2, [0.446952, 1.0]], [2, [0.148191, 1.0]], [3, [2.598839, 1.0]], [3, [0.849032, 1.0]], [3, [0.310222, 1.0]], [4, [1.838653, 1.0]], [4, [0.706784, 1.0]]]}
ecp = {'Mn': [10, [[-1, [[], [[18.43432244, 15.0]], [[12.74175213, 31301.56494509], [11.67410914, -4576.3546318], [12.90376156, -26766.73507377], [4.97171871, -4.09339906]], [[8.79264819, 276.51483655]]]], [0, [[], [], [[13.56187871, 2771.78238977], [9.44812535, 12553.69429672], [10.76503846, 1886.79316638], [11.65345594, -9260.55332402], [8.48073002, -8943.95003535], [6.96707028, 1041.73211249]], []]], [1, [[], [], [[12.71342918, -23181.32761179], [18.03174513, 111577.22220216], [16.6827906, -42399.84416473], [13.18867124, 16025.79106608], [18.42861128, -76264.60573764], [12.90928974, 14270.47832347]], []]], [2, [[], [], [[8.13384228, -382.83904013], [14.28699222, 5676.99013005], [11.14406629, 35338.03440844], [11.37674978, -38881.44458388], [18.25818233, 3550.6602642], [17.73146307, -5317.47975296]], []]]]], 'O': [2, [[-1, [[], [[10.27717748, 6.0]], [[15.99566749, 1232.50197768], [10.46901775, -696.47008301], [14.6384801, -2654.22657081], [12.57591181, 2101.67732548]], [[7.77739102, 61.66306486]]]], [0, [[], [], [[12.39426073, -656683.37638839], [12.38126171, 657858.57667068], [8.57671033, 511.50098405], [9.89256508, -2579.54665641], [28.05641604, -57.68129584], [17.24753607, 970.30940152]], []]], [1, [[], [], [[14.78918914, -363027.24258186], [14.82014018, 361852.52314043], [22.89622221, -1300.20069256], [8.51331893, -181.96869573], [11.48609758, 2194.87589959], [27.22017524, 451.19906206]], []]]]]}
CPU time:         0.61


******** <class 'pyscf.scf.rohf.ROHF'> flags ********
method = ROHF
initial guess = minao
damping factor = 0
level shift factor = 1000.0
DIIS = <class 'pyscf.scf.diis.CDIIS'>
DIIS start cycle = 1
DIIS space = 8
SCF tol = 1e-09
SCF gradient tol = None
max. SCF cycles = 50
direct_scf = True
direct_scf_tol = 1e-13
chkfile to save SCF result = /projects/bamu3429/BENCHMARK/fresh_atoms/MRPT/vqz/monoxides/MnO/tmpOnNR2l
max_memory 4000 MB (current use 85 MB)
num. doubly occ = 8  num. singly occ = 5
Set gradient conv threshold to 3.16228e-05
init E= -119.140371713437
  HOMO = 499.884409413027  LUMO = 999.974266324978
cycle= 1 E= -119.140371713437  delta_E= -8.53e-14  |g|= 1.22e-05  |ddm|= 3.46e-08
  HOMO = -0.115590601038967  LUMO = -0.0257336753813832
Extra cycle  E= -119.140371713452  delta_E= -1.44e-11  |g|= 1.55e-05  |ddm|= 3.37e-05
converged SCF energy = -119.140371713452
**** MO energy ****
                Roothaan           | alpha              | beta
MO #1   energy= -4.02099844011293  | -4.22539070416385  | -3.81660617643395  occ= 2
MO #2   energy= -2.53421363105488  | -2.77238832387656  | -2.2960389131193   occ= 2
MO #3   energy= -2.53004470051066  | -2.78021607362669  | -2.27987334068642  occ= 2
MO #4   energy= -2.53004470051065  | -2.78021607362668  | -2.27987334068642  occ= 2
MO #5   energy= -1.10908422300726  | -1.12127872015529  | -1.09688976567615  occ= 2
MO #6   energy= -0.393511106254839 | -0.419384622595879 | -0.367638025293524 occ= 2
MO #7   energy= -0.382252317659465 | -0.405628386264953 | -0.358875716132782 occ= 2
MO #8   energy= -0.382252317659461 | -0.40562838626495  | -0.358875716132782 occ= 2
MO #9   energy= -0.144768238896688 | -0.631046213065498 | 0.341508834598642  occ= 1
MO #10  energy= -0.144768238896669 | -0.631046213065412 | 0.341508834598636  occ= 1
MO #11  energy= -0.120203766467443 | -0.505619924885166 | 0.265208408285536  occ= 1
MO #12  energy= -0.115590601038968 | -0.582018558364411 | 0.350836321969675  occ= 1
MO #13  energy= -0.115590601038967 | -0.582018558364411 | 0.350836321969676  occ= 1
MO #14  energy= -0.0257336753813832 | -0.0372433620189872 | -0.0142210970893827 occ= 0
MO #15  energy= 0.017248390430325  | 0.0156206343839771 | 0.0188761566501042 occ= 0
MO #16  energy= 0.0172483904303255 | 0.0156206343839769 | 0.0188761566501046 occ= 0
MO #17  energy= 0.0204039674737759 | 0.015453835202351  | 0.0253546163965296 occ= 0
MO #18  energy= 0.0355094285152624 | 0.0345406517523169 | 0.0364783320117585 occ= 0
MO #19  energy= 0.0663679015011827 | 0.0632332098782875 | 0.0695026214643636 occ= 0
MO #20  energy= 0.0663679015011839 | 0.0632332098782814 | 0.0695026214643693 occ= 0
MO #21  energy= 0.069175009625062  | 0.0688137551650398 | 0.069536283653051  occ= 0
MO #22  energy= 0.0691750096250653 | 0.0688137551650408 | 0.0695362836530454 occ= 0
MO #23  energy= 0.0722087761181353 | 0.0712058651654845 | 0.0732117810205853 occ= 0
MO #24  energy= 0.0829371673092703 | 0.0779760494972617 | 0.0878983054980078 occ= 0
MO #25  energy= 0.0829371673092832 | 0.0779760494972702 | 0.0878983054980294 occ= 0
MO #26  energy= 0.126744151201825  | 0.121656925326239  | 0.13183127891437   occ= 0
MO #27  energy= 0.135468227295072  | 0.126084765923017  | 0.144852161152273  occ= 0
MO #28  energy= 0.196535514010682  | 0.192348204975641  | 0.200722875592204  occ= 0
MO #29  energy= 0.196535514010736  | 0.192348204975704  | 0.200722875592256  occ= 0
MO #30  energy= 0.204218708613696  | 0.200101743910023  | 0.208335719612905  occ= 0
MO #31  energy= 0.209948749576387  | 0.204336741544424  | 0.215560929892816  occ= 0
MO #32  energy= 0.209948749576404  | 0.204336741544423  | 0.21556092989279   occ= 0
MO #33  energy= 0.241789886175448  | 0.234834452613761  | 0.248745341809086  occ= 0
MO #34  energy= 0.241789886175473  | 0.234834452613802  | 0.248745341809092  occ= 0
MO #35  energy= 0.24345544299167   | 0.238047420569565  | 0.248863613711166  occ= 0
MO #36  energy= 0.261668084847072  | 0.247981330768241  | 0.275354849034108  occ= 0
MO #37  energy= 0.261668084847076  | 0.247981330768228  | 0.275354849034129  occ= 0
MO #38  energy= 0.39786060642985   | 0.387011265686895  | 0.408709935096762  occ= 0
MO #39  energy= 0.557365281699557  | 0.540567213911941  | 0.574163215591801  occ= 0
MO #40  energy= 0.567750319305939  | 0.564397916685041  | 0.571102728818932  occ= 0
MO #41  energy= 0.567750319305949  | 0.56439791668505   | 0.571102728818934  occ= 0
MO #42  energy= 0.605837141686657  | 0.588900252900849  | 0.622774138484001  occ= 0
MO #43  energy= 0.605837141686661  | 0.588900252900855  | 0.622774138483993  occ= 0
MO #44  energy= 0.621749358068143  | 0.600664379479057  | 0.64283440543194   occ= 0
MO #45  energy= 0.631782451186531  | 0.622692120159317  | 0.640872782213746  occ= 0
MO #46  energy= 0.631782451186538  | 0.622692120159314  | 0.640872782213743  occ= 0
MO #47  energy= 0.666782536337823  | 0.650440617996034  | 0.683124546454614  occ= 0
MO #48  energy= 0.677310760723271  | 0.65267346967857   | 0.701948326194039  occ= 0
MO #49  energy= 0.677310760723292  | 0.652673469678555  | 0.70194832619407   occ= 0
MO #50  energy= 0.707115214775415  | 0.702189835963452  | 0.712040597478459  occ= 0
MO #51  energy= 0.707115214775428  | 0.702189835963462  | 0.712040597478464  occ= 0
MO #52  energy= 0.734731250115484  | 0.728791074717353  | 0.74067146597619   occ= 0
MO #53  energy= 0.838742930765685  | 0.814618284505096  | 0.862867815440477  occ= 0
MO #54  energy= 0.83874293076574   | 0.814618284505134  | 0.8628678154405    occ= 0
MO #55  energy= 0.845434093365283  | 0.840079310201344  | 0.850788886744446  occ= 0
MO #56  energy= 0.845434093365293  | 0.840079310201356  | 0.850788886744452  occ= 0
MO #57  energy= 1.0263078157924    | 0.992789235641044  | 1.0598264587403    occ= 0
MO #58  energy= 1.02630781579244   | 0.992789235641109  | 1.05982645874031   occ= 0
MO #59  energy= 1.22958509537341   | 1.22051437940838   | 1.2386558041481    occ= 0
MO #60  energy= 1.33498706447167   | 1.30091182429639   | 1.36906241217354   occ= 0
MO #61  energy= 1.33498706447167   | 1.30091182429638   | 1.36906241217357   occ= 0
MO #62  energy= 1.36043008794997   | 1.34822580095977   | 1.3726343928642    occ= 0
MO #63  energy= 1.43118408945709   | 1.42964540847734   | 1.43272277043683   occ= 0
MO #64  energy= 1.43118408945709   | 1.42964540847734   | 1.43272277043683   occ= 0
MO #65  energy= 1.59299868907157   | 1.58427178852674   | 1.60172558960642   occ= 0
MO #66  energy= 1.59299868907158   | 1.58427178852675   | 1.60172558960643   occ= 0
MO #67  energy= 1.6151717356336    | 1.59889799830548   | 1.631445492557     occ= 0
MO #68  energy= 1.68726570960476   | 1.67893980351894   | 1.69559161472      occ= 0
MO #69  energy= 1.68726570960478   | 1.67893980351895   | 1.69559161472001   occ= 0
MO #70  energy= 1.70153186089801   | 1.69945696231169   | 1.70360675994801   occ= 0
MO #71  energy= 1.70153186089801   | 1.6994569623117    | 1.70360675994801   occ= 0
MO #72  energy= 1.80890261790115   | 1.78696685531045   | 1.83083838925642   occ= 0
MO #73  energy= 1.92588146140916   | 1.87249564701677   | 1.97926727580154   occ= 0
MO #74  energy= 1.92588146140916   | 1.87249564701677   | 1.97926727580154   occ= 0
MO #75  energy= 1.92939605369501   | 1.89392897035532   | 1.96486312906466   occ= 0
MO #76  energy= 1.92939605369502   | 1.89392897035532   | 1.96486312906465   occ= 0
MO #77  energy= 1.96985269284706   | 1.93670806087501   | 2.00299736893186   occ= 0
MO #78  energy= 2.03602792455185   | 1.99353512613085   | 2.07852072362808   occ= 0
MO #79  energy= 2.03602792455185   | 1.99353512613085   | 2.07852072362808   occ= 0
MO #80  energy= 2.14086539661943   | 2.1074892144728    | 2.17424159173902   occ= 0
MO #81  energy= 2.32097017465476   | 2.30134475516267   | 2.34059559414686   occ= 0
MO #82  energy= 2.32097017465477   | 2.30134475516267   | 2.34059559414686   occ= 0
MO #83  energy= 2.33908780064529   | 2.31763355884357   | 2.36054204841586   occ= 0
MO #84  energy= 2.33908780064532   | 2.31763355884361   | 2.36054204841587   occ= 0
MO #85  energy= 2.42028625852218   | 2.40421317463419   | 2.43635934241018   occ= 0
MO #86  energy= 2.42028625852218   | 2.40421317463419   | 2.43635934241018   occ= 0
MO #87  energy= 2.55531723529045   | 2.54671023464143   | 2.56392424026051   occ= 0
MO #88  energy= 2.55531723529046   | 2.54671023464143   | 2.56392424026051   occ= 0
MO #89  energy= 2.68982268998919   | 2.64992730345663   | 2.72971808395971   occ= 0
MO #90  energy= 2.7748711341963    | 2.75842228039503   | 2.79131999177948   occ= 0
MO #91  energy= 2.77487113419631   | 2.75842228039504   | 2.79131999177949   occ= 0
MO #92  energy= 2.8521703661543    | 2.83865611299433   | 2.86568462101561   occ= 0
MO #93  energy= 2.9195821600472    | 2.89613940640327   | 2.94302492172352   occ= 0
MO #94  energy= 2.9195821600472    | 2.89613940640329   | 2.94302492172351   occ= 0
MO #95  energy= 3.02007021796467   | 2.93547292923564   | 3.10466768278323   occ= 0
MO #96  energy= 3.02007021796472   | 2.9354729292357    | 3.10466768278328   occ= 0
MO #97  energy= 3.12517809003959   | 3.10273027570456   | 3.14762594007591   occ= 0
MO #98  energy= 3.39801202068801   | 3.3461678634976    | 3.44985624188816   occ= 0
MO #99  energy= 3.39801202068804   | 3.34616786349762   | 3.44985624188817   occ= 0
MO #100 energy= 3.77086519267833   | 3.76975761063282   | 3.77197277472384   occ= 0
MO #101 energy= 3.77086519267834   | 3.76975761063283   | 3.77197277472385   occ= 0
MO #102 energy= 3.91668993863129   | 3.9133145548372    | 3.92006532242539   occ= 0
MO #103 energy= 3.91668993863129   | 3.9133145548372    | 3.92006532242539   occ= 0
MO #104 energy= 3.97026457561079   | 3.9442023972965    | 3.99632678310548   occ= 0
MO #105 energy= 4.17123577382722   | 4.16940211710892   | 4.17306943054555   occ= 0
MO #106 energy= 4.17123577382724   | 4.16940211710892   | 4.17306943054555   occ= 0
MO #107 energy= 4.24344930936575   | 4.23724958755345   | 4.2496490326551    occ= 0
MO #108 energy= 4.24344930936575   | 4.23724958755345   | 4.24964903265511   occ= 0
MO #109 energy= 4.32533898908327   | 4.31570651423598   | 4.33497146494872   occ= 0
MO #110 energy= 4.32533898908328   | 4.31570651423598   | 4.33497146494872   occ= 0
MO #111 energy= 4.33963122336597   | 4.33660757390267   | 4.34265487341565   occ= 0
MO #112 energy= 4.33963122336598   | 4.33660757390268   | 4.34265487341566   occ= 0
MO #113 energy= 4.38156093824      | 4.37603658294529   | 4.38708529381585   occ= 0
MO #114 energy= 4.52582021888129   | 4.50840717115796   | 4.54323326650888   occ= 0
MO #115 energy= 4.5258202188813    | 4.50840717115797   | 4.54323326650888   occ= 0
MO #116 energy= 4.61599208059116   | 4.60507880649719   | 4.6269053565957    occ= 0
MO #117 energy= 4.63117445733291   | 4.61710318695885   | 4.64524572880509   occ= 0
MO #118 energy= 4.63117445733291   | 4.61710318695885   | 4.64524572880508   occ= 0
MO #119 energy= 4.97583237275806   | 4.92530978067567   | 5.02635496401077   occ= 0
MO #120 energy= 4.97583237275806   | 4.92530978067566   | 5.02635496401076   occ= 0
MO #121 energy= 5.06205132253482   | 4.98598376203546   | 5.13811887795863   occ= 0
MO #122 energy= 5.14490204282466   | 5.03662328069898   | 5.25318080495036   occ= 0
MO #123 energy= 5.14490204282466   | 5.03662328069898   | 5.25318080495035   occ= 0
MO #124 energy= 5.27879599023213   | 5.18255877021525   | 5.37503320968229   occ= 0
MO #125 energy= 5.27879599023217   | 5.18255877021531   | 5.37503320968231   occ= 0
MO #126 energy= 5.46689201341693   | 5.39487924774396   | 5.53890478096733   occ= 0
MO #127 energy= 5.46689201341693   | 5.39487924774396   | 5.53890478096733   occ= 0
MO #128 energy= 5.51984315133283   | 5.49521747353819   | 5.54446882914791   occ= 0
MO #129 energy= 5.96214213156471   | 5.92270411962896   | 6.00158014374358   occ= 0
MO #130 energy= 5.96214213156474   | 5.92270411962896   | 6.00158014374363   occ= 0
MO #131 energy= 6.0947766347629    | 6.05046280504758   | 6.13909047377734   occ= 0
MO #132 energy= 6.75988481625354   | 6.7304054988276    | 6.7893641336795    occ= 0
MO #133 energy= 6.75988481625355   | 6.7304054988276    | 6.78936413367951   occ= 0
MO #134 energy= 6.77465270730544   | 6.74679388932073   | 6.80251152529014   occ= 0
MO #135 energy= 6.77465270730544   | 6.74679388932072   | 6.80251152529013   occ= 0
MO #136 energy= 6.81248055649108   | 6.77269133975185   | 6.85226977355407   occ= 0
MO #137 energy= 6.89891687157827   | 6.87160648779441   | 6.92622725536214   occ= 0
MO #138 energy= 6.89891687157828   | 6.87160648779442   | 6.92622725536214   occ= 0
MO #139 energy= 6.99167843346376   | 6.93474610013936   | 7.04861076678817   occ= 0
MO #140 energy= 6.99167843346378   | 6.93474610013938   | 7.04861076678819   occ= 0
MO #141 energy= 7.06247645736571   | 7.00914854445903   | 7.11580437027239   occ= 0
MO #142 energy= 7.06247645736572   | 7.00914854445904   | 7.1158043702724    occ= 0
MO #143 energy= 7.12087679252337   | 7.07439748752685   | 7.16735609752136   occ= 0
MO #144 energy= 7.12087679252338   | 7.07439748752685   | 7.16735609752137   occ= 0
MO #145 energy= 7.37735773297391   | 7.32936458348205   | 7.42535088400336   occ= 0
MO #146 energy= 7.37735773297391   | 7.32936458348205   | 7.42535088400335   occ= 0
MO #147 energy= 7.43820922654263   | 7.3968692627855    | 7.47954919556406   occ= 0
MO #148 energy= 7.44381146678225   | 7.41428989309821   | 7.47333304075007   occ= 0
MO #149 energy= 7.44381146678225   | 7.41428989309824   | 7.47333304075009   occ= 0
MO #150 energy= 7.49675122696681   | 7.4689263096927    | 7.5245761442895    occ= 0
MO #151 energy= 7.61013093583074   | 7.58150806659089   | 7.6387538058949    occ= 0
MO #152 energy= 7.61013093583074   | 7.58150806659089   | 7.63875380589489   occ= 0
MO #153 energy= 9.24150014851276   | 9.16966240527156   | 9.3133378975229    occ= 0
MO #154 energy= 9.24150014851278   | 9.16966240527156   | 9.31333789752294   occ= 0
MO #155 energy= 9.32457115818434   | 9.31374938349064   | 9.3353929333886    occ= 0
MO #156 energy= 9.32457115818465   | 9.31374938349095   | 9.33539293338887   occ= 0
MO #157 energy= 9.56499960134639   | 9.50785986254892   | 9.62213933928748   occ= 0
MO #158 energy= 10.3428311193762   | 10.3309419840556   | 10.3547202548553   occ= 0
MO #159 energy= 10.7203821717375   | 10.6743332860057   | 10.7664310586498   occ= 0
MO #160 energy= 10.7203821717376   | 10.6743332860058   | 10.7664310586499   occ= 0
MO #161 energy= 10.7370254008123   | 10.7354942383814   | 10.7385565632432   occ= 0
MO #162 energy= 10.7370254008123   | 10.7354942383814   | 10.7385565632432   occ= 0
MO #163 energy= 10.8068303868559   | 10.8055358696122   | 10.8081249040995   occ= 0
MO #164 energy= 10.8068303868559   | 10.8055358696122   | 10.8081249040996   occ= 0
MO #165 energy= 11.0036877739614   | 11.0021164080928   | 11.0052591398365   occ= 0
MO #166 energy= 11.0036877739614   | 11.0021164080928   | 11.0052591398365   occ= 0
MO #167 energy= 11.0786024168105   | 11.076040738836    | 11.0811640948308   occ= 0
MO #168 energy= 11.1264103149961   | 11.1239748853116   | 11.1288457446931   occ= 0
MO #169 energy= 11.1264103149961   | 11.1239748853116   | 11.1288457446931   occ= 0
MO #170 energy= 11.6982249653171   | 11.6958408773665   | 11.7006090532676   occ= 0
MO #171 energy= 11.6982249653171   | 11.6958408773665   | 11.7006090532676   occ= 0
MO #172 energy= 11.8384944453201   | 11.8362417350595   | 11.8407471555803   occ= 0
MO #173 energy= 11.8384944453201   | 11.8362417350595   | 11.8407471555803   occ= 0
MO #174 energy= 11.9789595763624   | 11.9607784078284   | 11.9971407452009   occ= 0
MO #175 energy= 12.6056527072794   | 12.593927802922    | 12.6173776116345   occ= 0
MO #176 energy= 12.6056527072794   | 12.593927802922    | 12.6173776116345   occ= 0
MO #177 energy= 12.6871344217516   | 12.6840263767125   | 12.6902424667876   occ= 0
MO #178 energy= 12.6871344217516   | 12.6840263767125   | 12.6902424667876   occ= 0
MO #179 energy= 12.9662724571399   | 12.9598817527867   | 12.9726631615212   occ= 0
MO #180 energy= 12.9662724571399   | 12.9598817527867   | 12.9726631615212   occ= 0
MO #181 energy= 13.0657110502736   | 13.0201782969083   | 13.1112438035581   occ= 0
MO #182 energy= 13.6509914861302   | 13.6313332375349   | 13.6706497347112   occ= 0
MO #183 energy= 13.9229012850863   | 13.8248092468016   | 14.020993323371    occ= 0
MO #184 energy= 13.9229012850863   | 13.8248092468016   | 14.020993323371    occ= 0
MO #185 energy= 14.0038079481468   | 13.9033680696248   | 14.1042478260602   occ= 0
MO #186 energy= 14.0038079481468   | 13.9033680696248   | 14.1042478260602   occ= 0
MO #187 energy= 14.0772855620208   | 13.9843886455379   | 14.1701824773976   occ= 0
MO #188 energy= 14.0772855620208   | 13.9843886455379   | 14.1701824773976   occ= 0
MO #189 energy= 14.7482530078237   | 14.6834286019277   | 14.8130774128961   occ= 0
MO #190 energy= 15.4069918126819   | 15.3525958287487   | 15.461387796636    occ= 0
MO #191 energy= 15.4069918126819   | 15.3525958287488   | 15.4613877966361   occ= 0
MO #192 energy= 16.4763585224736   | 16.4238201890996   | 16.5288968558846   occ= 0
MO #193 energy= 19.1495871469325   | 19.0766219489604   | 19.2225523449048   occ= 0
MO #194 energy= 19.1495871469326   | 19.0766219489604   | 19.2225523449048   occ= 0
MO #195 energy= 19.1788196036937   | 19.1031877853766   | 19.2544514220108   occ= 0
MO #196 energy= 19.1788196036937   | 19.1031877853766   | 19.2544514220108   occ= 0
MO #197 energy= 19.2453061694812   | 19.1713279326172   | 19.3192844063826   occ= 0
MO #198 energy= 19.2453061694812   | 19.1713279326172   | 19.3192844063826   occ= 0
MO #199 energy= 19.3523785322371   | 19.2815926916365   | 19.423164372814    occ= 0
MO #200 energy= 19.3523785322372   | 19.2815926916365   | 19.423164372814    occ= 0
MO #201 energy= 19.4194558468395   | 19.3537582106217   | 19.4851534831541   occ= 0
MO #202 energy= 20.1735441267939   | 20.121532894968    | 20.2255553586197   occ= 0
MO #203 energy= 20.1735441267939   | 20.121532894968    | 20.2255553586197   occ= 0
MO #204 energy= 20.1800476367176   | 20.1267273256745   | 20.2333679477607   occ= 0
MO #205 energy= 20.1800476367177   | 20.1267273256746   | 20.2333679477608   occ= 0
MO #206 energy= 20.2216337966234   | 20.1691824478992   | 20.2740851453475   occ= 0
MO #207 energy= 20.2216337966234   | 20.1691824478992   | 20.2740851453475   occ= 0
MO #208 energy= 20.3419917316099   | 20.3207160910222   | 20.363267372209    occ= 0
MO #209 energy= 20.3845810600263   | 20.3340592904353   | 20.4351028296447   occ= 0
MO #210 energy= 20.3845810600263   | 20.3340592904353   | 20.4351028296447   occ= 0
MO #211 energy= 20.6233676751174   | 20.5743121135399   | 20.6724232367373   occ= 0
MO #212 energy= 20.6233676751175   | 20.57431211354     | 20.6724232367374   occ= 0
MO #213 energy= 20.7064882056999   | 20.6738467327382   | 20.7391296786846   occ= 0
MO #214 energy= 26.8950514446941   | 26.8658867621993   | 26.9242161271888   occ= 0
 ** Mulliken pop on meta-lowdin orthogonal AOs  **
 ** Mulliken pop  **
pop of  0Mn 3s        1.99990
pop of  0Mn 4s        0.45432
pop of  0Mn 5s        0.01231
pop of  0Mn 6s        0.00322
pop of  0Mn 7s        0.00024
pop of  0Mn 8s        0.00247
pop of  0Mn 9s        0.00155
pop of  0Mn 3px       1.99956
pop of  0Mn 3py       1.99956
pop of  0Mn 3pz       1.99852
pop of  0Mn 4px       0.03435
pop of  0Mn 4py       0.03435
pop of  0Mn 4pz       0.00305
pop of  0Mn 5px       0.00181
pop of  0Mn 5py       0.00181
pop of  0Mn 5pz       0.00132
pop of  0Mn 6px       0.00007
pop of  0Mn 6py       0.00007
pop of  0Mn 6pz       0.00046
pop of  0Mn 7px       0.00001
pop of  0Mn 7py       0.00001
pop of  0Mn 7pz       0.00014
pop of  0Mn 8px       0.00460
pop of  0Mn 8py       0.00460
pop of  0Mn 8pz       0.00179
pop of  0Mn 9px       0.00050
pop of  0Mn 9py       0.00050
pop of  0Mn 9pz       0.00035
pop of  0Mn 3dxy      0.99681
pop of  0Mn 3dyz      1.05928
pop of  0Mn 3dz^2     1.01950
pop of  0Mn 3dxz      1.05928
pop of  0Mn 3dx2-y2    0.99681
pop of  0Mn 4dxy      0.00185
pop of  0Mn 4dyz      0.00256
pop of  0Mn 4dz^2     0.00031
pop of  0Mn 4dxz      0.00256
pop of  0Mn 4dx2-y2    0.00185
pop of  0Mn 5dxy      0.00017
pop of  0Mn 5dyz      0.00013
pop of  0Mn 5dz^2     0.00089
pop of  0Mn 5dxz      0.00013
pop of  0Mn 5dx2-y2    0.00017
pop of  0Mn 6dxy      0.00000
pop of  0Mn 6dyz      0.00003
pop of  0Mn 6dz^2     0.00013
pop of  0Mn 6dxz      0.00003
pop of  0Mn 6dx2-y2    0.00000
pop of  0Mn 7dxy      0.00041
pop of  0Mn 7dyz      0.00130
pop of  0Mn 7dz^2     0.00090
pop of  0Mn 7dxz      0.00130
pop of  0Mn 7dx2-y2    0.00041
pop of  0Mn 8dxy      0.00004
pop of  0Mn 8dyz      0.00015
pop of  0Mn 8dz^2     0.00028
pop of  0Mn 8dxz      0.00015
pop of  0Mn 8dx2-y2    0.00004
pop of  0Mn 4fy^3     0.00000
pop of  0Mn 4fxyz     0.00000
pop of  0Mn 4fyz^2    0.00001
pop of  0Mn 4fz^3     0.00002
pop of  0Mn 4fxz^2    0.00001
pop of  0Mn 4fzx^2    0.00000
pop of  0Mn 4fx^3     0.00000
pop of  0Mn 5fy^3     0.00000
pop of  0Mn 5fxyz     0.00004
pop of  0Mn 5fyz^2    0.00019
pop of  0Mn 5fz^3     0.00025
pop of  0Mn 5fxz^2    0.00019
pop of  0Mn 5fzx^2    0.00004
pop of  0Mn 5fx^3     0.00000
pop of  0Mn 6fy^3     0.00000
pop of  0Mn 6fxyz     0.00015
pop of  0Mn 6fyz^2    0.00024
pop of  0Mn 6fz^3     0.00016
pop of  0Mn 6fxz^2    0.00024
pop of  0Mn 6fzx^2    0.00015
pop of  0Mn 6fx^3     0.00000
pop of  0Mn 7fy^3     0.00000
pop of  0Mn 7fxyz     0.00005
pop of  0Mn 7fyz^2    0.00012
pop of  0Mn 7fz^3     0.00007
pop of  0Mn 7fxz^2    0.00012
pop of  0Mn 7fzx^2    0.00005
pop of  0Mn 7fx^3     0.00000
pop of  0Mn 5g-4      0.00000
pop of  0Mn 5g-3      0.00000
pop of  0Mn 5g-2      0.00000
pop of  0Mn 5g-1      0.00000
pop of  0Mn 5g 0      0.00000
pop of  0Mn 5g 1      0.00000
pop of  0Mn 5g 2      0.00000
pop of  0Mn 5g 3      0.00000
pop of  0Mn 5g 4      0.00000
pop of  0Mn 6g-4      0.00000
pop of  0Mn 6g-3      0.00000
pop of  0Mn 6g-2      0.00000
pop of  0Mn 6g-1      0.00001
pop of  0Mn 6g 0      0.00002
pop of  0Mn 6g 1      0.00001
pop of  0Mn 6g 2      0.00000
pop of  0Mn 6g 3      0.00000
pop of  0Mn 6g 4      0.00000
pop of  0Mn 7g-4      0.00000
pop of  0Mn 7g-3      0.00000
pop of  0Mn 7g-2      0.00000
pop of  0Mn 7g-1      0.00013
pop of  0Mn 7g 0      0.00022
pop of  0Mn 7g 1      0.00013
pop of  0Mn 7g 2      0.00000
pop of  0Mn 7g 3      0.00000
pop of  0Mn 7g 4      0.00000
pop of  0Mn 6h-5      0.00000
pop of  0Mn 6h-4      0.00000
pop of  0Mn 6h-3      0.00000
pop of  0Mn 6h-2      0.00000
pop of  0Mn 6h-1      0.00000
pop of  0Mn 6h 0      0.00000
pop of  0Mn 6h 1      0.00000
pop of  0Mn 6h 2      0.00000
pop of  0Mn 6h 3      0.00000
pop of  0Mn 6h 4      0.00000
pop of  0Mn 6h 5      0.00000
pop of  0Mn 7h-5      0.00000
pop of  0Mn 7h-4      0.00000
pop of  0Mn 7h-3      0.00000
pop of  0Mn 7h-2      0.00000
pop of  0Mn 7h-1      0.00002
pop of  0Mn 7h 0      0.00003
pop of  0Mn 7h 1      0.00002
pop of  0Mn 7h 2      0.00000
pop of  0Mn 7h 3      0.00000
pop of  0Mn 7h 4      0.00000
pop of  0Mn 7h 5      0.00000
pop of  1O 2s        1.89715
pop of  1O 3s        0.00053
pop of  1O 4s        0.00012
pop of  1O 5s        0.00146
pop of  1O 6s        0.00396
pop of  1O 2px       1.84508
pop of  1O 2py       1.84508
pop of  1O 2pz       1.57988
pop of  1O 3px       0.00310
pop of  1O 3py       0.00310
pop of  1O 3pz       0.00111
pop of  1O 4px       0.00045
pop of  1O 4py       0.00045
pop of  1O 4pz       0.00070
pop of  1O 5px       0.01793
pop of  1O 5py       0.01793
pop of  1O 5pz       0.00513
pop of  1O 6px       0.01064
pop of  1O 6py       0.01064
pop of  1O 6pz       0.00216
pop of  1O 3dxy      0.00000
pop of  1O 3dyz      0.00007
pop of  1O 3dz^2     0.00010
pop of  1O 3dxz      0.00007
pop of  1O 3dx2-y2    0.00000
pop of  1O 4dxy      0.00000
pop of  1O 4dyz      0.00083
pop of  1O 4dz^2     0.00109
pop of  1O 4dxz      0.00083
pop of  1O 4dx2-y2    0.00000
pop of  1O 5dxy      0.00002
pop of  1O 5dyz      0.00519
pop of  1O 5dz^2     0.00237
pop of  1O 5dxz      0.00519
pop of  1O 5dx2-y2    0.00002
pop of  1O 6dxy      0.00024
pop of  1O 6dyz      0.01014
pop of  1O 6dz^2     0.00162
pop of  1O 6dxz      0.01014
pop of  1O 6dx2-y2    0.00024
pop of  1O 4fy^3     0.00000
pop of  1O 4fxyz     0.00000
pop of  1O 4fyz^2    0.00001
pop of  1O 4fz^3     0.00002
pop of  1O 4fxz^2    0.00001
pop of  1O 4fzx^2    0.00000
pop of  1O 4fx^3     0.00000
pop of  1O 5fy^3     0.00000
pop of  1O 5fxyz     0.00000
pop of  1O 5fyz^2    0.00025
pop of  1O 5fz^3     0.00012
pop of  1O 5fxz^2    0.00025
pop of  1O 5fzx^2    0.00000
pop of  1O 5fx^3     0.00000
pop of  1O 6fy^3     0.00000
pop of  1O 6fxyz     0.00018
pop of  1O 6fyz^2    0.00122
pop of  1O 6fz^3     0.00002
pop of  1O 6fxz^2    0.00122
pop of  1O 6fzx^2    0.00018
pop of  1O 6fx^3     0.00000
pop of  1O 5g-4      0.00000
pop of  1O 5g-3      0.00000
pop of  1O 5g-2      0.00000
pop of  1O 5g-1      0.00000
pop of  1O 5g 0      0.00001
pop of  1O 5g 1      0.00000
pop of  1O 5g 2      0.00000
pop of  1O 5g 3      0.00000
pop of  1O 5g 4      0.00000
pop of  1O 6g-4      0.00000
pop of  1O 6g-3      0.00000
pop of  1O 6g-2      0.00002
pop of  1O 6g-1      0.00004
pop of  1O 6g 0      0.00003
pop of  1O 6g 1      0.00004
pop of  1O 6g 2      0.00002
pop of  1O 6g 3      0.00000
pop of  1O 6g 4      0.00000
 ** Mulliken atomic charges  **
charge of  0Mn =      1.28840
charge of  1O =     -1.28840

******** <class 'pyscf.mcscf.mc1step.CASSCF'> flags ********
CAS (8e+3e, 9o), ncore = 5, nvir = 200
max_cycle_macro = 50
max_cycle_micro = 4
conv_tol = 1e-07
conv_tol_grad = None
orbital rotation max_stepsize = 0.02
augmented hessian ah_max_cycle = 30
augmented hessian ah_conv_tol = 1e-12
augmented hessian ah_linear dependence = 1e-14
augmented hessian ah_level shift = 0
augmented hessian ah_start_tol = 2.5
augmented hessian ah_start_cycle = 3
augmented hessian ah_grad_trust_region = 3
kf_trust_region = 3
kf_interval = 4
ci_response_space = 4
ci_grad_trust_region = 3
with_dep4 0
natorb = False
canonicalization = True
chkfile = ./scratch/184458/tmpIlixp7
max_memory 4000 MB (current use 2218 MB)
internal_rotation = False

******** SHCI flags ********
executable             = /home/bamu3429/softwares/dice/Dice
mpiprefix              = mpirun -np 28
scratchDirectory       = ./scratch/184458
integralFile           = ./FCIDUMP
configFile             = ./input.dat
outputFile             = ./output.dat
maxIter                = 6
sweep_iter             = []
sweep_epsilon          = []
nPTiter                = 0
Stochastic             = True
fullrestart            = False
restart                = False
num_thrds              = 12
memory                 = None

CASCI E = -119.14886897154  S^2 = 8.7500000
Set conv_tol_grad to 0.000316228
macro iter 1 (21 JK  4 micro), CASSCF E = -119.205610261197  dE = -0.05674129  S^2 = 8.7500000
               |grad[o]|=0.0614  |grad[c]|= None  |ddm|=0.429
macro iter 2 (14 JK  4 micro), CASSCF E = -119.227133848637  dE = -0.021523587  S^2 = 8.7500000
               |grad[o]|=0.152  |grad[c]|= None  |ddm|=0.284
macro iter 3 (9 JK  4 micro), CASSCF E = -119.227265443842  dE = -0.0001315952  S^2 = 8.7500000
               |grad[o]|=0.0127  |grad[c]|= None  |ddm|=0.0169
macro iter 4 (8 JK  3 micro), CASSCF E = -119.227265688857  dE = -2.4501557e-07  S^2 = 8.7500000
               |grad[o]|=0.000472  |grad[c]|= None  |ddm|=0.000601
macro iter 5 (3 JK  1 micro), CASSCF E = -119.227265689694  dE = -8.3640828e-10  S^2 = 8.7500000
               |grad[o]|=5.12e-05  |grad[c]|= None  |ddm|=    0
1-step CASSCF converged in 5 macro (55 JK 16 micro) steps
CASSCF canonicalization
CASSCF energy = -119.227265689694


--------------------------------------------------
                 ICMPSPT CALCULATION              
--------------------------------------------------

Perturbation type: MRLCC
With fully internally contracted scheme
With third order correction

Preparing necessary RDMs
......production of RDMs took      32.71 sec
Reading binary 4RDM from DICE
......reading the RDM took         26.49 sec

(GOOD) Trace 4RDM:   7920.0 =   11*   10*    9*    8
(GOOD) Trace 3RDM:    990.0 =   11*   10*    9
(GOOD) Trace 2RDM:    110.0 =   11*   10
(GOOD) Trace 1RDM:     11.0 =   11

Producing the integrals
......production of INT took    3564.98 sec

Energy_core =  -117.141527282
Energy      =  -119.22726569

WARNING: Have to use natural orbitals from CAASCF
         offdiagonal elements: 0.833475961871

Basic ingredients written to int/
......savings of INGREDIENTS took     771.11 sec

Second-order:
perturber CCVV --        -0.125165959
perturber CCAV --        -0.051124423
perturber ACVV --        -0.247233129
perturber CCAA --        -0.029509635
perturber AAVV --        -0.246784989
perturber CAAV --        -0.152383626
perturber AAAV --        -0.052576822
perturber AAAC --        -0.001970351
Total:                   -0.906748933

Third-order:              0.000846251

Total PT       --        -0.905902682

