 &FCI NORB=6 ,NELEC=10 ,MS2=0,
  ORBSYM=1,1,1,1,1,1,
  ISYM=1,
 &END
  1.014106541207e+00    1  1  1  1
  1.379876562406e-07    2  1  1  1
  3.865304437137e-02    2  1  2  1
  9.368001840461e-01    2  2  1  1
 -3.615445774786e-08    2  2  2  1
  1.014105860389e+00    2  2  2  2
 -6.517825028288e-06    3  1  1  1
 -7.087602558281e-05    3  1  2  1
  1.402648237674e-04    3  1  2  2
  3.937840198324e-02    3  1  3  1
  1.123532998679e-04    3  2  1  1
 -6.433882353920e-05    3  2  2  1
 -6.509372115591e-07    3  2  2  2
  2.388243551202e-03    3  2  3  1
  3.758166081002e-02    3  2  3  2
  9.354482218019e-01    3  3  1  1
 -4.558672400788e-03    3  3  2  1
  9.388773979043e-01    3  3  2  2
  2.394932559250e-06    3  3  3  1
 -5.406340739549e-07    3  3  3  2
  1.014040219802e+00    3  3  3  3
 -1.698821776047e-05    4  1  1  1
 -9.719488258932e-07    4  1  2  1
  6.276955815915e-06    4  1  2  2
  1.803409811466e-03    4  1  3  1
  1.890524194213e-02    4  1  3  2
  1.181773599339e-04    4  1  3  3
  4.313422399700e-02    4  1  4  1
  1.757903674981e-05    4  2  1  1
  9.465331773955e-07    4  2  2  1
 -2.328391261116e-06    4  2  2  2
 -1.384605563219e-02    4  2  3  1
 -2.701184393787e-03    4  2  3  2
 -1.015227648570e-04    4  2  3  3
 -2.399842280462e-03    4  2  4  1
  3.183852921255e-02    4  2  4  2
 -3.442249716434e-03    4  3  1  1
 -5.012443027696e-03    4  3  2  1
  5.294565244156e-03    4  3  2  2
 -5.609037165065e-05    4  3  3  1
  4.966678480368e-05    4  3  3  2
 -5.416177740770e-05    4  3  3  3
  5.041090372701e-05    4  3  4  1
  7.620734005699e-05    4  3  4  2
  2.391266895235e-02    4  3  4  3
  9.280436893667e-01    4  4  1  1
  4.727711376735e-03    4  4  2  1
  9.502955427639e-01    4  4  2  2
 -1.005546875451e-04    4  4  3  1
 -1.534189758156e-04    4  4  3  2
  9.661940302912e-01    4  4  3  3
  4.023275540425e-06    4  4  4  1
 -1.220412701346e-06    4  4  4  2
 -4.562453707019e-05    4  4  4  3
  1.013983224999e+00    4  4  4  4
 -3.256947152036e-06    5  1  1  1
 -1.496291461058e-05    5  1  2  1
  6.045225665631e-05    5  1  2  2
  1.532974044107e-03    5  1  3  1
  3.235320358552e-03    5  1  3  2
 -2.375143553387e-05    5  1  3  3
  3.682935389882e-03    5  1  4  1
 -1.335452489835e-03    5  1  4  2
  1.744914509827e-05    5  1  4  3
 -3.257233556222e-05    5  1  4  4
  2.193069223771e-02    5  1  5  1
  3.059633236801e-05    5  2  1  1
 -3.742490705140e-05    5  2  2  1
  3.445423784157e-06    5  2  2  2
  1.433546049395e-02    5  2  3  1
 -4.195592273568e-03    5  2  3  2
  2.808116277444e-05    5  2  3  3
 -5.654079216674e-03    5  2  4  1
 -1.060241745963e-02    5  2  4  2
 -9.235834581618e-05    5  2  4  3
 -6.000854310449e-05    5  2  4  4
  6.023017354315e-05    5  2  5  1
  3.485585698929e-02    5  2  5  2
 -3.041813418634e-03    5  3  1  1
 -1.756966487069e-02    5  3  2  1
  8.494871110318e-03    5  3  2  2
  2.014836293298e-05    5  3  3  1
 -1.577326573438e-05    5  3  3  2
 -1.193166695324e-04    5  3  3  3
 -9.452888839620e-05    5  3  4  1
  8.502196133659e-05    5  3  4  2
  6.935034535246e-03    5  3  4  3
 -5.424146202789e-03    5  3  4  4
  1.600563080131e-05    5  3  5  1
 -1.518627779092e-05    5  3  5  2
  4.213218928079e-02    5  3  5  3
 -7.345724799947e-03    5  4  1  1
  6.989415183094e-03    5  4  2  1
  2.128984899221e-02    5  4  2  2
  7.399133262858e-05    5  4  3  1
  9.003399707914e-06    5  4  3  2
 -1.392933600489e-02    5  4  3  3
  2.135250231841e-05    5  4  4  1
  2.940536611850e-05    5  4  4  2
  2.690976673602e-03    5  4  4  3
 -6.313815766588e-05    5  4  4  4
  5.489417303906e-05    5  4  5  1
 -4.315475553039e-05    5  4  5  2
  9.650359397828e-04    5  4  5  3
  4.416444956700e-02    5  4  5  4
  9.702458400601e-01    5  5  1  1
 -1.203382596477e-04    5  5  2  1
  9.443962334034e-01    5  5  2  2
 -3.761733948862e-05    5  5  3  1
  3.122720955969e-05    5  5  3  2
  9.299254755359e-01    5  5  3  3
 -1.247792136400e-04    5  5  4  1
  8.948138066079e-05    5  5  4  2
 -1.785483158011e-03    5  5  4  3
  9.259578071735e-01    5  5  4  4
 -3.124840213248e-06    5  5  5  1
  7.447803679492e-07    5  5  5  2
  2.312004172177e-05    5  5  5  3
  1.918728675540e-05    5  5  5  4
  1.014107856572e+00    5  5  5  5
  5.645415764340e-05    6  1  1  1
 -8.255424235574e-06    6  1  2  1
  3.848335802166e-05    6  1  2  2
  5.281069700633e-04    6  1  3  1
  1.190686897435e-03    6  1  3  2
  4.166813066561e-05    6  1  3  3
  1.348645500444e-03    6  1  4  1
 -4.731285337795e-04    6  1  4  2
  1.599810792887e-06    6  1  4  3
  2.517293562070e-05    6  1  4  4
  2.605963948159e-04    6  1  5  1
  1.839674828620e-06    6  1  5  2
 -5.584056005051e-07    6  1  5  3
 -3.005967743902e-06    6  1  5  4
  4.508000512245e-05    6  1  5  5
  2.875625960356e-02    6  1  6  1
 -1.740411152714e-05    6  2  1  1
  1.041735650507e-07    6  2  2  1
  3.319176361743e-06    6  2  2  2
  1.194435571926e-03    6  2  3  1
 -3.688269633036e-04    6  2  3  2
 -9.804866271131e-06    6  2  3  3
 -4.798050021030e-04    6  2  4  1
 -8.905489875107e-04    6  2  4  2
 -4.868652237018e-06    6  2  4  3
 -9.338704923089e-06    6  2  4  4
  3.604638868841e-06    6  2  5  1
  1.141369573143e-03    6  2  5  2
  2.084828060363e-06    6  2  5  3
  8.750646896375e-06    6  2  5  4
 -1.589367928144e-05    6  2  5  5
  1.395112776236e-05    6  2  6  1
  2.872397614026e-02    6  2  6  2
  2.899767074239e-04    6  3  1  1
  1.191221583333e-03    6  3  2  1
 -6.066346784755e-04    6  3  2  2
  3.300156085694e-06    6  3  3  1
 -4.331329652321e-07    6  3  3  2
 -8.145733699557e-04    6  3  3  3
  1.537308505036e-06    6  3  4  1
 -5.053685556002e-06    6  3  4  2
 -4.479306143278e-04    6  3  4  3
 -3.657676995814e-04    6  3  4  4
 -5.685092498549e-07    6  3  5  1
  3.276520960525e-06    6  3  5  2
 -1.302186780065e-03    6  3  5  3
  2.226473211192e-04    6  3  5  4
  2.161406079297e-04    6  3  5  5
 -5.956974884569e-07    6  3  6  1
 -2.993653744074e-06    6  3  6  2
  2.875508911567e-02    6  3  6  3
  1.218562524495e-03    6  4  1  1
 -4.740877542288e-04    6  4  2  1
 -1.018887739053e-03    6  4  2  2
  1.866340520138e-06    6  4  3  1
 -3.969608277489e-06    6  4  3  2
 -5.840291657644e-04    6  4  3  3
 -1.275659662119e-05    6  4  4  1
 -3.173724925177e-07    6  4  4  2
 -1.179374549365e-04    6  4  4  3
 -1.374288484636e-03    6  4  4  4
 -2.555770386391e-06    6  4  5  1
  8.604063596079e-06    6  4  5  2
  2.192395017472e-04    6  4  5  3
 -8.210262435094e-04    6  4  5  4
  1.059383920351e-03    6  4  5  5
 -3.464333450455e-06    6  4  6  1
  4.883707522155e-07    6  4  6  2
 -8.764056763647e-06    6  4  6  3
  2.874768016106e-02    6  4  6  4
  3.722950551480e-04    6  5  1  1
  6.856366349731e-06    6  5  2  1
  1.241131000531e-03    6  5  2  2
 -6.748868134580e-07    6  5  3  1
  2.903422425476e-06    6  5  3  2
 -1.198892065741e-03    6  5  3  3
 -2.532024673203e-06    6  5  4  1
  8.727221786338e-06    6  5  4  2
  2.181512523478e-04    6  5  4  3
 -7.194376879005e-04    6  5  4  4
  4.961719653615e-06    6  5  5  1
 -6.657824900725e-06    6  5  5  2
  4.522308249822e-04    6  5  5  3
  1.187933656830e-03    6  5  5  4
  8.622022880446e-04    6  5  5  5
 -6.352776768604e-07    6  5  6  1
  7.547938797411e-07    6  5  6  2
 -2.107279979451e-05    6  5  6  3
 -1.177281161083e-05    6  5  6  4
  2.874890570145e-02    6  5  6  5
  6.811377457091e-01    6  6  1  1
  2.420983848580e-05    6  6  2  1
  6.810827949863e-01    6  6  2  2
 -1.027870632212e-06    6  6  3  1
 -5.344637025972e-06    6  6  3  2
  6.811324515085e-01    6  6  3  3
 -6.113037307643e-06    6  6  4  1
  8.423223159484e-07    6  6  4  2
 -1.543525682368e-05    6  6  4  3
  6.811250292424e-01    6  6  4  4
 -1.145726640212e-06    6  6  5  1
  1.335231509912e-06    6  6  5  2
 -3.742634564919e-05    6  6  5  3
 -2.336665550550e-05    6  6  5  4
  6.811252394727e-01    6  6  5  5
  1.224350211263e-05    6  6  6  1
 -2.955264528563e-06    6  6  6  2
 -8.097872920375e-05    6  6  6  3
 -4.430422848717e-05    6  6  6  4
  2.589309952791e-05    6  6  6  5
  5.701988315879e-01    6  6  6  6
 -9.214788819378e+00    1  1  0  0
 -4.889442607899e-05    2  1  0  0
 -9.214617892233e+00    2  2  0  0
  2.393722015435e-06    3  1  0  0
  1.091641743204e-05    3  2  0  0
 -9.214630647854e+00    3  3  0  0
  1.370587431177e-05    4  1  0  0
 -2.062914467938e-06    4  2  0  0
  3.125823454930e-05    4  3  0  0
 -9.214620118518e+00    4  4  0  0
  2.184984676905e-06    5  1  0  0
 -2.856587377829e-06    5  2  0  0
  6.651663289815e-05    5  3  0  0
  3.014268437959e-05    5  4  0  0
 -9.214778315773e+00    5  5  0  0
 -3.616641104514e-04    6  1  0  0
  8.590457369656e-05    6  2  0  0
  2.240928532650e-03    6  3  0  0
  1.222194642226e-03    6  4  0  0
 -9.734031516041e-04    6  5  0  0
 -6.206945626351e+00    6  6  0  0
   -146.235123201515   0  0  0  0
