#INFO: **** input file is /projects/bamu3429/BENCHMARK/fresh_atoms/MRPT/vqz/atoms/Cu_1/mrpt.py ****
import json
from pyscf import gto,scf,mcscf, fci, lo, ci, cc
from pyscf.scf import ROHF, UHF,ROKS
import numpy as np
import pandas as pd

# THIS IS WERE IT STARTS ====================================

df=json.load(open("../../../trail.json"))

spins={'Sc':1, 'Ti':2, 'V':3, 'Cr':6, 'Mn':5, 'Fe':4, 'Cu':1}

nd={'Sc':(1,0), 'Ti':(2,0), 'V':(3,0), 'Cr':(5,0), 'Mn':(5,0), 'Fe':(5,1), 'Cu':(5,5)}

cas={'Sc':3, 'Ti':4, 'V':5, 'Cr':6, 'Mn':7, 'Fe':8, 'Cu':11}

datacsv={}
for nm in ['atom','charge','method','basis','pseudopotential','hf',
           'totalenergy','totalenergy-stocherr','totalenergy-syserr']:
  datacsv[nm]=[]

basis='vqz'
el='Cu'
charge=1

mol=gto.Mole()
mol.ecp={}
mol.basis={}
mol.ecp[el]=gto.basis.parse_ecp(df[el]['ecp'])
mol.basis[el]=gto.basis.parse(df[el][basis])
mol.charge=charge
if el == 'Cr' or el == 'Cu':
  mol.spin=spins[el]-charge
else:
  mol.spin=spins[el]+charge
mol.build(atom="%s 0. 0. 0."%el,verbose=4)

m=ROHF(mol)
m.level_shift=1000.0
dm=m.from_chk("../../../../HF/atoms/"+el+basis+str(charge)+".chk")
hf=m.kernel(dm)
m.analyze()

from pyscf.shciscf import shci
mc = shci.SHCISCF(m, 6, cas[el]-charge)
#mc.fcisolver.conv_tol = 1e-14
mc.fcisolver.mpiprefix="mpirun -np 28"
mc.fcisolver.num_thrds=12
mc.verbose = 4
cas=mc.kernel()[0]
 
from pyscf.icmpspt import icmpspt
pt=icmpspt.icmpspt(mc,rdmM=500, PTM=1000,\
                          pttype="MRLCC",\
                          third_order=True,\
                          fully_ic=True,\
                          do_dm4=True)

datacsv['atom'].append(el)
datacsv['charge'].append(charge)
datacsv['method'].append('MRPT')
datacsv['basis'].append(basis)
datacsv['pseudopotential'].append('trail')
datacsv['hf'].append(hf)
datacsv['totalenergy'].append(cas+pt)
datacsv['totalenergy-stocherr'].append(0.0)
datacsv['totalenergy-syserr'].append(0.0)
pd.DataFrame(datacsv).to_csv(el+".csv",index=False)

#INFO: ******************** input file end ********************


System: ('Linux', 'bnode0308.rc.int.colorado.edu', '3.10.0-514.41.1.el7.x86_64', '#1 SMP Wed Jan 17 10:26:16 EST 2018', 'x86_64', 'x86_64')  Threads 1
Python 2.7.11 (default, Mar 22 2016, 01:42:54) 
[GCC Intel(R) C++ gcc 4.8 mode]
numpy 1.11.1  scipy 0.17.1
Date: Mon Mar 26 16:53:53 2018
PySCF version 1.4b
PySCF path  /projects/bamu3429/softwares/pyscf/pyscf
GIT ORIG_HEAD a007ed0a2fbe03d40db097068519a89db937d194
GIT HEAD      ref: refs/heads/dev
GIT dev branch  c61da64dc121f43448ee07e62e4d3a4eb5ddcda8

[INPUT] VERBOSE 4
[INPUT] num atoms = 1
[INPUT] num electrons = 18
[INPUT] charge = 1
[INPUT] spin (= nelec alpha-beta = 2S) = 0
[INPUT] symmetry False subgroup None
[INPUT]  1 Cu     0.000000000000   0.000000000000   0.000000000000 AA    0.000000000000   0.000000000000   0.000000000000 Bohr
[INPUT] ---------------- BASIS SET ---------------- 
[INPUT] l, kappa, [nprim/nctr], expnt,             c_1 c_2 ...
[INPUT] Cu
[INPUT] 0    0    [12   /1   ]  56.69692001       0.003858
                                20.1703448        -1.511163
                                16.89311889       5.262467
                                14.81117613       -4.140408
                                6.02025146        0.066973
                                2.45829434        0.59039
                                1.29773244        0.435
                                0.73258474        0.171005
                                0.2960966         0.014654
                                0.13350445        -0.001059
                                0.05975279        0.002343
                                0.0277617         7.2e-05
[INPUT] 0    0    [12   /1   ]  56.69692001       -0.000329
                                20.1703448        0.271255
                                16.89311889       -0.991333
                                14.81117613       0.80309
                                6.02025146        -0.009798
                                2.45829434        -0.162788
                                1.29773244        -0.157463
                                0.73258474        -0.146178
                                0.2960966         0.068557
                                0.13350445        0.45286
                                0.05975279        0.4989
                                0.0277617         0.13834
[INPUT] 0    0    [12   /1   ]  56.69692001       -0.002551
                                20.1703448        1.12923
                                16.89311889       -4.208771
                                14.81117613       3.504395
                                6.02025146        -0.310068
                                2.45829434        -0.948573
                                1.29773244        0.107692
                                0.73258474        0.283225
                                0.2960966         0.768789
                                0.13350445        0.404068
                                0.05975279        -0.49902
                                0.0277617         -0.540161
[INPUT] 0    0    [12   /1   ]  56.69692001       0.007574
                                20.1703448        -2.35403
                                16.89311889       8.801928
                                14.81117613       -7.424941
                                6.02025146        1.124887
                                2.45829434        1.860663
                                1.29773244        -1.702448
                                0.73258474        -0.943294
                                0.2960966         0.405131
                                0.13350445        1.184629
                                0.05975279        -0.32669
                                0.0277617         -0.642304
[INPUT] 0    0    [12   /1   ]  56.69692001       0.007778
                                20.1703448        -3.004154
                                16.89311889       12.239766
                                14.81117613       -11.033489
                                6.02025146        3.580468
                                2.45829434        -0.483578
                                1.29773244        -3.918947
                                0.73258474        3.017896
                                0.2960966         1.202344
                                0.13350445        -1.805167
                                0.05975279        -0.196904
                                0.0277617         0.841489
[INPUT] 0    0    [1    /1   ]  0.0277617            1
[INPUT] 0    0    [1    /1   ]  0.01289834           1
[INPUT] 1    0    [12   /1   ]  84.11621248       0.00021
                                41.67010486       -0.003354
                                20.84027636       0.054507
                                13.1175259        -0.185677
                                7.96834211        0.1136
                                4.08681185        0.286879
                                2.29416473        0.386568
                                1.21038981        0.304256
                                0.60503887        0.104511
                                0.23373223        0.008916
                                0.0905483         -0.000333
                                0.03498335        0.000208
[INPUT] 1    0    [12   /1   ]  84.11621248       4e-06
                                41.67010486       0.000359
                                20.84027636       -0.009409
                                13.1175259        0.03575
                                7.96834211        -0.025333
                                4.08681185        -0.064167
                                2.29416473        -0.086609
                                1.21038981        -0.086359
                                0.60503887        0.027529
                                0.23373223        0.324015
                                0.0905483         0.541358
                                0.03498335        0.260105
[INPUT] 1    0    [12   /1   ]  84.11621248       -9.7e-05
                                41.67010486       -0.001093
                                20.84027636       0.054854
                                13.1175259        -0.302416
                                7.96834211        0.3704
                                4.08681185        0.7815
                                2.29416473        -0.133515
                                1.21038981        -0.829877
                                0.60503887        -0.276498
                                0.23373223        0.679878
                                0.0905483         0.342509
                                0.03498335        0.000334
[INPUT] 1    0    [12   /1   ]  84.11621248       0.000342
                                41.67010486       -0.003336
                                20.84027636       0.098476
                                13.1175259        -0.655108
                                7.96834211        1.275801
                                4.08681185        0.700436
                                2.29416473        -1.674683
                                1.21038981        -0.445629
                                0.60503887        1.497855
                                0.23373223        -0.162223
                                0.0905483         -0.632066
                                0.03498335        0.018744
[INPUT] 1    0    [12   /1   ]  84.11621248       0.004681
                                41.67010486       -0.030582
                                20.84027636       0.124236
                                13.1175259        0.21778
                                7.96834211        -1.536679
                                4.08681185        1.170732
                                2.29416473        0.932627
                                1.21038981        -1.845524
                                0.60503887        0.707649
                                0.23373223        0.494903
                                0.0905483         -0.575064
                                0.03498335        0.021878
[INPUT] 1    0    [1    /1   ]  0.03498335           1
[INPUT] 1    0    [1    /1   ]  0.01351582           1
[INPUT] 2    0    [10   /1   ]  85.06963135       0.000306
                                37.22826442       -0.00619
                                15.61164981       0.135912
                                9.50636668        0.057336
                                5.30208049        0.240495
                                2.49612499        0.317037
                                1.13949453        0.29791
                                0.51100337        0.208077
                                0.230497          0.090388
                                0.11275594        0.026692
[INPUT] 2    0    [10   /1   ]  85.06963135       -4e-05
                                37.22826442       0.005773
                                15.61164981       -0.159536
                                9.50636668        -0.06682
                                5.30208049        -0.377892
                                2.49612499        -0.225348
                                1.13949453        0.197365
                                0.51100337        0.40543
                                0.230497          0.287219
                                0.11275594        0.134596
[INPUT] 2    0    [10   /1   ]  85.06963135       0.000844
                                37.22826442       0.001909
                                15.61164981       -0.161123
                                9.50636668        -0.138816
                                5.30208049        -0.495349
                                2.49612499        0.338929
                                1.13949453        0.642294
                                0.51100337        -0.062501
                                0.230497          -0.424292
                                0.11275594        -0.330264
[INPUT] 2    0    [10   /1   ]  85.06963135       0.004172
                                37.22826442       -0.012359
                                15.61164981       -0.197125
                                9.50636668        -0.584626
                                5.30208049        0.008748
                                2.49612499        1.205337
                                1.13949453        -0.519891
                                0.51100337        -0.635552
                                0.230497          0.306963
                                0.11275594        0.434075
[INPUT] 2    0    [1    /1   ]  0.11275594           1
[INPUT] 2    0    [1    /1   ]  0.05515864           1
[INPUT] 3    0    [1    /1   ]  6.93543              1
[INPUT] 3    0    [1    /1   ]  2.30775              1
[INPUT] 3    0    [1    /1   ]  0.767897             1
[INPUT] 3    0    [1    /1   ]  0.25551545           1
[INPUT] 4    0    [1    /1   ]  6.503244             1
[INPUT] 4    0    [1    /1   ]  2.204905             1
[INPUT] 4    0    [1    /1   ]  0.74756629           1
[INPUT] 5    0    [1    /1   ]  5.193885             1
[INPUT] 5    0    [1    /1   ]  1.76097081           1
nuclear repulsion = 0
number of shells = 29
number of NR pGTOs = 535
number of NR cGTOs = 135
basis = {'Cu': [[0, [56.69692001, 0.003858], [20.1703448, -1.511163], [16.89311889, 5.262467], [14.81117613, -4.140408], [6.02025146, 0.066973], [2.45829434, 0.59039], [1.29773244, 0.435], [0.73258474, 0.171005], [0.2960966, 0.014654], [0.13350445, -0.001059], [0.05975279, 0.002343], [0.0277617, 7.2e-05]], [0, [56.69692001, -0.000329], [20.1703448, 0.271255], [16.89311889, -0.991333], [14.81117613, 0.80309], [6.02025146, -0.009798], [2.45829434, -0.162788], [1.29773244, -0.157463], [0.73258474, -0.146178], [0.2960966, 0.068557], [0.13350445, 0.45286], [0.05975279, 0.4989], [0.0277617, 0.13834]], [0, [56.69692001, -0.002551], [20.1703448, 1.12923], [16.89311889, -4.208771], [14.81117613, 3.504395], [6.02025146, -0.310068], [2.45829434, -0.948573], [1.29773244, 0.107692], [0.73258474, 0.283225], [0.2960966, 0.768789], [0.13350445, 0.404068], [0.05975279, -0.49902], [0.0277617, -0.540161]], [0, [56.69692001, 0.007574], [20.1703448, -2.35403], [16.89311889, 8.801928], [14.81117613, -7.424941], [6.02025146, 1.124887], [2.45829434, 1.860663], [1.29773244, -1.702448], [0.73258474, -0.943294], [0.2960966, 0.405131], [0.13350445, 1.184629], [0.05975279, -0.32669], [0.0277617, -0.642304]], [0, [56.69692001, 0.007778], [20.1703448, -3.004154], [16.89311889, 12.239766], [14.81117613, -11.033489], [6.02025146, 3.580468], [2.45829434, -0.483578], [1.29773244, -3.918947], [0.73258474, 3.017896], [0.2960966, 1.202344], [0.13350445, -1.805167], [0.05975279, -0.196904], [0.0277617, 0.841489]], [0, [0.0277617, 1.0]], [0, [0.01289834, 1.0]], [1, [84.11621248, 0.00021], [41.67010486, -0.003354], [20.84027636, 0.054507], [13.1175259, -0.185677], [7.96834211, 0.1136], [4.08681185, 0.286879], [2.29416473, 0.386568], [1.21038981, 0.304256], [0.60503887, 0.104511], [0.23373223, 0.008916], [0.0905483, -0.000333], [0.03498335, 0.000208]], [1, [84.11621248, 4e-06], [41.67010486, 0.000359], [20.84027636, -0.009409], [13.1175259, 0.03575], [7.96834211, -0.025333], [4.08681185, -0.064167], [2.29416473, -0.086609], [1.21038981, -0.086359], [0.60503887, 0.027529], [0.23373223, 0.324015], [0.0905483, 0.541358], [0.03498335, 0.260105]], [1, [84.11621248, -9.7e-05], [41.67010486, -0.001093], [20.84027636, 0.054854], [13.1175259, -0.302416], [7.96834211, 0.3704], [4.08681185, 0.7815], [2.29416473, -0.133515], [1.21038981, -0.829877], [0.60503887, -0.276498], [0.23373223, 0.679878], [0.0905483, 0.342509], [0.03498335, 0.000334]], [1, [84.11621248, 0.000342], [41.67010486, -0.003336], [20.84027636, 0.098476], [13.1175259, -0.655108], [7.96834211, 1.275801], [4.08681185, 0.700436], [2.29416473, -1.674683], [1.21038981, -0.445629], [0.60503887, 1.497855], [0.23373223, -0.162223], [0.0905483, -0.632066], [0.03498335, 0.018744]], [1, [84.11621248, 0.004681], [41.67010486, -0.030582], [20.84027636, 0.124236], [13.1175259, 0.21778], [7.96834211, -1.536679], [4.08681185, 1.170732], [2.29416473, 0.932627], [1.21038981, -1.845524], [0.60503887, 0.707649], [0.23373223, 0.494903], [0.0905483, -0.575064], [0.03498335, 0.021878]], [1, [0.03498335, 1.0]], [1, [0.01351582, 1.0]], [2, [85.06963135, 0.000306], [37.22826442, -0.00619], [15.61164981, 0.135912], [9.50636668, 0.057336], [5.30208049, 0.240495], [2.49612499, 0.317037], [1.13949453, 0.29791], [0.51100337, 0.208077], [0.230497, 0.090388], [0.11275594, 0.026692]], [2, [85.06963135, -4e-05], [37.22826442, 0.005773], [15.61164981, -0.159536], [9.50636668, -0.06682], [5.30208049, -0.377892], [2.49612499, -0.225348], [1.13949453, 0.197365], [0.51100337, 0.40543], [0.230497, 0.287219], [0.11275594, 0.134596]], [2, [85.06963135, 0.000844], [37.22826442, 0.001909], [15.61164981, -0.161123], [9.50636668, -0.138816], [5.30208049, -0.495349], [2.49612499, 0.338929], [1.13949453, 0.642294], [0.51100337, -0.062501], [0.230497, -0.424292], [0.11275594, -0.330264]], [2, [85.06963135, 0.004172], [37.22826442, -0.012359], [15.61164981, -0.197125], [9.50636668, -0.584626], [5.30208049, 0.008748], [2.49612499, 1.205337], [1.13949453, -0.519891], [0.51100337, -0.635552], [0.230497, 0.306963], [0.11275594, 0.434075]], [2, [0.11275594, 1.0]], [2, [0.05515864, 1.0]], [3, [6.93543, 1.0]], [3, [2.30775, 1.0]], [3, [0.767897, 1.0]], [3, [0.25551545, 1.0]], [4, [6.503244, 1.0]], [4, [2.204905, 1.0]], [4, [0.74756629, 1.0]], [5, [5.193885, 1.0]], [5, [1.76097081, 1.0]]]}
ecp = {'Cu': [10, [[-1, [[], [[19.87662576, 19.0]], [[18.71397328, 13322.8315411], [8.24597653, -143.81933419], [17.99726398, -6835.89401414], [19.50653533, -6413.73731394]], [[9.35936389, 377.6558895]]]], [0, [[], [], [[12.04327682, 217421.85846016], [11.98352277, -215987.47192743], [9.67744501, 1647.53099822], [17.5806873, -5124.79596488], [17.5092588, -963.5691239], [19.80724162, 3071.81011765]], []]], [1, [[], [], [[15.48559732, 189560.54470794], [15.42430413, -181115.65838446], [17.81980355, -1937.67548293], [17.69074392, -2335.92086442], [17.98867265, -8634.52846732], [19.82460345, 4504.58524733]], []]], [2, [[], [], [[10.91448054, -5224.34215851], [14.69969344, -3653.65459704], [11.52370333, 8159.25189768], [19.81153965, -2763.94279097], [18.0197982, 6020.80732635], [14.46480052, -2560.14492979]], []]]]]}
CPU time:         0.60


******** <class 'pyscf.scf.rohf.ROHF'> flags ********
method = ROHF
initial guess = minao
damping factor = 0
level shift factor = 1000.0
DIIS = <class 'pyscf.scf.diis.CDIIS'>
DIIS start cycle = 1
DIIS space = 8
SCF tol = 1e-09
SCF gradient tol = None
max. SCF cycles = 50
direct_scf = True
direct_scf_tol = 1e-13
chkfile to save SCF result = /projects/bamu3429/BENCHMARK/fresh_atoms/MRPT/vqz/atoms/Cu_1/tmpQjXRSq
max_memory 4000 MB (current use 82 MB)
num. doubly occ = 9  num. singly occ = 0
Set gradient conv threshold to 3.16228e-05
init E= -196.322077262093
  HOMO = -0.802890825156684  LUMO = 999.762055171167
cycle= 1 E= -196.322077262093  delta_E=    0  |g|= 2.26e-06  |ddm|= 7.7e-09
  HOMO = -0.802890824116586  LUMO = -0.237944828760097
Extra cycle  E= -196.322077262094  delta_E= -7.39e-13  |g|= 1.15e-06  |ddm|= 8.61e-07
converged SCF energy = -196.322077262094
**** MO energy ****
                Roothaan           | alpha              | beta
MO #1   energy= -5.54762086408375  | -5.54762086408375  | -5.54762086408375  occ= 2
MO #2   energy= -3.82053022819549  | -3.82053022819549  | -3.82053022819549  occ= 2
MO #3   energy= -3.82053022700529  | -3.82053022700528  | -3.82053022700528  occ= 2
MO #4   energy= -3.82053022043469  | -3.82053022043469  | -3.82053022043469  occ= 2
MO #5   energy= -0.802890829931428 | -0.802890829931432 | -0.802890829931432 occ= 2
MO #6   energy= -0.802890828691682 | -0.802890828691682 | -0.802890828691682 occ= 2
MO #7   energy= -0.802890825243346 | -0.802890825243341 | -0.802890825243341 occ= 2
MO #8   energy= -0.80289082521177  | -0.802890825211773 | -0.802890825211773 occ= 2
MO #9   energy= -0.802890824116586 | -0.802890824116588 | -0.802890824116588 occ= 2
MO #10  energy= -0.237944828760097 | -0.2379448287601   | -0.2379448287601   occ= 0
MO #11  energy= -0.123832365626059 | -0.123832365626057 | -0.123832365626057 occ= 0
MO #12  energy= -0.123832365208069 | -0.123832365208066 | -0.123832365208066 occ= 0
MO #13  energy= -0.123832362886324 | -0.123832362886322 | -0.123832362886322 occ= 0
MO #14  energy= -0.0799803442853057 | -0.0799803442853043 | -0.0799803442853043 occ= 0
MO #15  energy= -0.0495318223771795 | -0.0495318223771763 | -0.0495318223771763 occ= 0
MO #16  energy= -0.0495318222339947 | -0.0495318222339903 | -0.0495318222339903 occ= 0
MO #17  energy= -0.0495318214423622 | -0.0495318214423584 | -0.0495318214423584 occ= 0
MO #18  energy= -0.00841594739364149 | -0.00841594739363456 | -0.00841594739363456 occ= 0
MO #19  energy= -0.00841594737859477 | -0.00841594737860019 | -0.00841594737860019 occ= 0
MO #20  energy= -0.00841594520278459 | -0.00841594520278965 | -0.00841594520278965 occ= 0
MO #21  energy= -0.00841594481674421 | -0.00841594481674108 | -0.00841594481674108 occ= 0
MO #22  energy= -0.00841594407128464 | -0.00841594407128848 | -0.00841594407128848 occ= 0
MO #23  energy= 0.05517243971378   | 0.0551724397137846 | 0.0551724397137846 occ= 0
MO #24  energy= 0.107807279392904  | 0.107807279392908  | 0.107807279392908  occ= 0
MO #25  energy= 0.107807279810503  | 0.107807279810508  | 0.107807279810508  occ= 0
MO #26  energy= 0.107807282107457  | 0.107807282107466  | 0.107807282107466  occ= 0
MO #27  energy= 0.269399956239549  | 0.269399956239551  | 0.269399956239551  occ= 0
MO #28  energy= 0.269399956267728  | 0.269399956267728  | 0.269399956267728  occ= 0
MO #29  energy= 0.269399960872241  | 0.269399960872245  | 0.269399960872245  occ= 0
MO #30  energy= 0.269399961659616  | 0.269399961659614  | 0.269399961659614  occ= 0
MO #31  energy= 0.269399963539897  | 0.269399963539901  | 0.269399963539901  occ= 0
MO #32  energy= 0.514488999280878  | 0.514488999280895  | 0.514488999280895  occ= 0
MO #33  energy= 0.715288594307735  | 0.715288594307732  | 0.715288594307732  occ= 0
MO #34  energy= 0.715288594310479  | 0.715288594310475  | 0.715288594310475  occ= 0
MO #35  energy= 0.715288602405054  | 0.715288602405056  | 0.715288602405056  occ= 0
MO #36  energy= 0.715288602579511  | 0.715288602579503  | 0.715288602579503  occ= 0
MO #37  energy= 0.715288606532103  | 0.715288606532106  | 0.715288606532106  occ= 0
MO #38  energy= 0.71528860817746   | 0.715288608177458  | 0.715288608177458  occ= 0
MO #39  energy= 0.715288609059324  | 0.71528860905932   | 0.71528860905932   occ= 0
MO #40  energy= 1.26110204089205   | 1.26110204089204   | 1.26110204089204   occ= 0
MO #41  energy= 1.26110204092906   | 1.26110204092906   | 1.26110204092906   occ= 0
MO #42  energy= 1.26110204846333   | 1.26110204846333   | 1.26110204846333   occ= 0
MO #43  energy= 1.26110204967527   | 1.26110204967528   | 1.26110204967528   occ= 0
MO #44  energy= 1.26110205353872   | 1.26110205353872   | 1.26110205353872   occ= 0
MO #45  energy= 1.55752898209599   | 1.55752898209598   | 1.55752898209598   occ= 0
MO #46  energy= 1.55752898405712   | 1.55752898405712   | 1.55752898405712   occ= 0
MO #47  energy= 1.55752899482185   | 1.55752899482185   | 1.55752899482185   occ= 0
MO #48  energy= 2.72824250152976   | 2.72824250152975   | 2.72824250152975   occ= 0
MO #49  energy= 2.72824250153372   | 2.72824250153371   | 2.72824250153371   occ= 0
MO #50  energy= 2.72824251342334   | 2.72824251342333   | 2.72824251342333   occ= 0
MO #51  energy= 2.728242513673     | 2.72824251367301   | 2.72824251367301   occ= 0
MO #52  energy= 2.72824251963489   | 2.72824251963488   | 2.72824251963488   occ= 0
MO #53  energy= 2.72824252204763   | 2.72824252204762   | 2.72824252204762   occ= 0
MO #54  energy= 2.72824252341664   | 2.72824252341663   | 2.72824252341663   occ= 0
MO #55  energy= 2.81916272370339   | 2.81916272370339   | 2.81916272370339   occ= 0
MO #56  energy= 3.26615673251117   | 3.26615673251117   | 3.26615673251117   occ= 0
MO #57  energy= 3.26615673251135   | 3.26615673251135   | 3.26615673251135   occ= 0
MO #58  energy= 3.26615674434469   | 3.26615674434469   | 3.26615674434469   occ= 0
MO #59  energy= 3.26615674436371   | 3.26615674436371   | 3.26615674436371   occ= 0
MO #60  energy= 3.26615675251491   | 3.26615675251491   | 3.26615675251491   occ= 0
MO #61  energy= 3.26615675300882   | 3.26615675300881   | 3.26615675300881   occ= 0
MO #62  energy= 3.26615675679829   | 3.26615675679829   | 3.26615675679829   occ= 0
MO #63  energy= 3.26615675961392   | 3.26615675961393   | 3.26615675961393   occ= 0
MO #64  energy= 3.26615676031971   | 3.26615676031972   | 3.26615676031972   occ= 0
MO #65  energy= 4.87665726123453   | 4.87665726123453   | 4.87665726123453   occ= 0
MO #66  energy= 4.87665726124976   | 4.87665726124975   | 4.87665726124975   occ= 0
MO #67  energy= 4.87665726586848   | 4.87665726586847   | 4.87665726586847   occ= 0
MO #68  energy= 4.87665726654226   | 4.87665726654226   | 4.87665726654226   occ= 0
MO #69  energy= 4.87665726959225   | 4.87665726959226   | 4.87665726959226   occ= 0
MO #70  energy= 6.34594984078387   | 6.34594984078387   | 6.34594984078387   occ= 0
MO #71  energy= 6.34594984281473   | 6.34594984281472   | 6.34594984281472   occ= 0
MO #72  energy= 6.34594985405462   | 6.34594985405462   | 6.34594985405462   occ= 0
MO #73  energy= 7.74026959411557   | 7.74026959411556   | 7.74026959411556   occ= 0
MO #74  energy= 7.7402695941167    | 7.7402695941167    | 7.7402695941167    occ= 0
MO #75  energy= 7.74026959854803   | 7.74026959854802   | 7.74026959854802   occ= 0
MO #76  energy= 7.74026959862001   | 7.74026959862001   | 7.74026959862001   occ= 0
MO #77  energy= 7.74026960149952   | 7.74026960149951   | 7.74026960149951   occ= 0
MO #78  energy= 7.74026960240119   | 7.74026960240119   | 7.74026960240119   occ= 0
MO #79  energy= 7.7402696032213    | 7.7402696032213    | 7.7402696032213    occ= 0
MO #80  energy= 9.79243486668201   | 9.79243486668202   | 9.79243486668202   occ= 0
MO #81  energy= 9.79243486668204   | 9.79243486668202   | 9.79243486668202   occ= 0
MO #82  energy= 9.79243487715729   | 9.79243487715729   | 9.79243487715729   occ= 0
MO #83  energy= 9.79243487715837   | 9.79243487715837   | 9.79243487715837   occ= 0
MO #84  energy= 9.79243488525482   | 9.79243488525481   | 9.79243488525481   occ= 0
MO #85  energy= 9.79243488530597   | 9.79243488530597   | 9.79243488530597   occ= 0
MO #86  energy= 9.79243489062457   | 9.79243489062457   | 9.79243489062457   occ= 0
MO #87  energy= 9.79243489136093   | 9.79243489136092   | 9.79243489136092   occ= 0
MO #88  energy= 9.79243489354583   | 9.79243489354581   | 9.79243489354581   occ= 0
MO #89  energy= 9.79243489640971   | 9.7924348964097    | 9.7924348964097    occ= 0
MO #90  energy= 9.79243489671834   | 9.79243489671832   | 9.79243489671832   occ= 0
MO #91  energy= 10.4745166685392   | 10.4745166685392   | 10.4745166685392   occ= 0
MO #92  energy= 10.4745166685394   | 10.4745166685394   | 10.4745166685394   occ= 0
MO #93  energy= 10.4745166761986   | 10.4745166761986   | 10.4745166761986   occ= 0
MO #94  energy= 10.4745166762109   | 10.4745166762109   | 10.4745166762109   occ= 0
MO #95  energy= 10.4745166814236   | 10.4745166814236   | 10.4745166814236   occ= 0
MO #96  energy= 10.4745166817446   | 10.4745166817446   | 10.4745166817446   occ= 0
MO #97  energy= 10.4745166841421   | 10.4745166841421   | 10.4745166841421   occ= 0
MO #98  energy= 10.4745166859517   | 10.4745166859517   | 10.4745166859517   occ= 0
MO #99  energy= 10.4745166863915   | 10.4745166863916   | 10.4745166863916   occ= 0
MO #100 energy= 12.4187492556556   | 12.4187492556556   | 12.4187492556556   occ= 0
MO #101 energy= 14.7425397921963   | 14.7425397921963   | 14.7425397921963   occ= 0
MO #102 energy= 14.7425397922255   | 14.7425397922255   | 14.7425397922255   occ= 0
MO #103 energy= 14.7425397928473   | 14.7425397928473   | 14.7425397928473   occ= 0
MO #104 energy= 14.7425397958233   | 14.7425397958233   | 14.7425397958233   occ= 0
MO #105 energy= 14.7425397958564   | 14.7425397958564   | 14.7425397958564   occ= 0
MO #106 energy= 20.2476408508598   | 20.2476408508598   | 20.2476408508598   occ= 0
MO #107 energy= 20.2476408545783   | 20.2476408545784   | 20.2476408545784   occ= 0
MO #108 energy= 20.2476408552712   | 20.2476408552712   | 20.2476408552712   occ= 0
MO #109 energy= 21.7407378210498   | 21.7407378210498   | 21.7407378210498   occ= 0
MO #110 energy= 21.7407378217024   | 21.7407378217024   | 21.7407378217024   occ= 0
MO #111 energy= 21.7407378230232   | 21.7407378230232   | 21.7407378230232   occ= 0
MO #112 energy= 21.7407378260765   | 21.7407378260765   | 21.7407378260765   occ= 0
MO #113 energy= 21.7407378262211   | 21.7407378262211   | 21.7407378262211   occ= 0
MO #114 energy= 21.7407378327118   | 21.7407378327118   | 21.7407378327118   occ= 0
MO #115 energy= 21.740737832714    | 21.7407378327141   | 21.7407378327141   occ= 0
MO #116 energy= 29.3553387869366   | 29.3553387869366   | 29.3553387869366   occ= 0
MO #117 energy= 29.3553387873366   | 29.3553387873366   | 29.3553387873366   occ= 0
MO #118 energy= 29.3553387885965   | 29.3553387885964   | 29.3553387885964   occ= 0
MO #119 energy= 29.355338790534    | 29.3553387905341   | 29.3553387905341   occ= 0
MO #120 energy= 29.355338790734    | 29.355338790734    | 29.355338790734    occ= 0
MO #121 energy= 29.3553387946059   | 29.3553387946059   | 29.3553387946059   occ= 0
MO #122 energy= 29.3553387946132   | 29.3553387946131   | 29.3553387946131   occ= 0
MO #123 energy= 29.355338799774    | 29.355338799774    | 29.355338799774    occ= 0
MO #124 energy= 29.3553387997741   | 29.3553387997741   | 29.3553387997741   occ= 0
MO #125 energy= 30.0089361528889   | 30.008936152889    | 30.008936152889    occ= 0
MO #126 energy= 30.0089361529937   | 30.0089361529937   | 30.0089361529937   occ= 0
MO #127 energy= 30.0089361533079   | 30.0089361533079   | 30.0089361533079   occ= 0
MO #128 energy= 30.0089361537887   | 30.0089361537887   | 30.0089361537887   occ= 0
MO #129 energy= 30.0089361538367   | 30.0089361538368   | 30.0089361538368   occ= 0
MO #130 energy= 30.0089361547318   | 30.0089361547318   | 30.0089361547318   occ= 0
MO #131 energy= 30.0089361547334   | 30.0089361547334   | 30.0089361547334   occ= 0
MO #132 energy= 30.0089361557809   | 30.0089361557809   | 30.0089361557809   occ= 0
MO #133 energy= 30.008936155781    | 30.008936155781    | 30.008936155781    occ= 0
MO #134 energy= 30.0089361566831   | 30.0089361566831   | 30.0089361566831   occ= 0
MO #135 energy= 30.0089361566831   | 30.0089361566831   | 30.0089361566831   occ= 0
 ** Mulliken pop on meta-lowdin orthogonal AOs  **
 ** Mulliken pop  **
pop of  0Cu 3s        1.99995
pop of  0Cu 4s        0.00000
pop of  0Cu 5s        0.00003
pop of  0Cu 6s        0.00001
pop of  0Cu 7s        0.00000
pop of  0Cu 8s        0.00000
pop of  0Cu 9s        0.00000
pop of  0Cu 3px       1.99994
pop of  0Cu 3py       1.99994
pop of  0Cu 3pz       1.99994
pop of  0Cu 4px       0.00004
pop of  0Cu 4py       0.00004
pop of  0Cu 4pz       0.00004
pop of  0Cu 5px       0.00002
pop of  0Cu 5py       0.00002
pop of  0Cu 5pz       0.00002
pop of  0Cu 6px       0.00001
pop of  0Cu 6py       0.00001
pop of  0Cu 6pz       0.00001
pop of  0Cu 7px       0.00000
pop of  0Cu 7py       0.00000
pop of  0Cu 7pz       0.00000
pop of  0Cu 8px       0.00000
pop of  0Cu 8py       0.00000
pop of  0Cu 8pz       0.00000
pop of  0Cu 9px       0.00000
pop of  0Cu 9py       0.00000
pop of  0Cu 9pz       0.00000
pop of  0Cu 3dxy      1.99906
pop of  0Cu 3dyz      1.99906
pop of  0Cu 3dz^2     1.99906
pop of  0Cu 3dxz      1.99906
pop of  0Cu 3dx2-y2    1.99906
pop of  0Cu 4dxy      0.00087
pop of  0Cu 4dyz      0.00087
pop of  0Cu 4dz^2     0.00087
pop of  0Cu 4dxz      0.00087
pop of  0Cu 4dx2-y2    0.00087
pop of  0Cu 5dxy      0.00001
pop of  0Cu 5dyz      0.00001
pop of  0Cu 5dz^2     0.00001
pop of  0Cu 5dxz      0.00001
pop of  0Cu 5dx2-y2    0.00001
pop of  0Cu 6dxy      0.00002
pop of  0Cu 6dyz      0.00002
pop of  0Cu 6dz^2     0.00002
pop of  0Cu 6dxz      0.00002
pop of  0Cu 6dx2-y2    0.00002
pop of  0Cu 7dxy      0.00003
pop of  0Cu 7dyz      0.00003
pop of  0Cu 7dz^2     0.00003
pop of  0Cu 7dxz      0.00003
pop of  0Cu 7dx2-y2    0.00003
pop of  0Cu 8dxy      0.00000
pop of  0Cu 8dyz      0.00000
pop of  0Cu 8dz^2     0.00000
pop of  0Cu 8dxz      0.00000
pop of  0Cu 8dx2-y2    0.00000
pop of  0Cu 4fy^3     0.00000
pop of  0Cu 4fxyz     0.00000
pop of  0Cu 4fyz^2    0.00000
pop of  0Cu 4fz^3     0.00000
pop of  0Cu 4fxz^2    0.00000
pop of  0Cu 4fzx^2    0.00000
pop of  0Cu 4fx^3     0.00000
pop of  0Cu 5fy^3     0.00000
pop of  0Cu 5fxyz     0.00000
pop of  0Cu 5fyz^2    0.00000
pop of  0Cu 5fz^3     0.00000
pop of  0Cu 5fxz^2    0.00000
pop of  0Cu 5fzx^2    0.00000
pop of  0Cu 5fx^3     0.00000
pop of  0Cu 6fy^3     0.00000
pop of  0Cu 6fxyz     0.00000
pop of  0Cu 6fyz^2    0.00000
pop of  0Cu 6fz^3     0.00000
pop of  0Cu 6fxz^2    0.00000
pop of  0Cu 6fzx^2    0.00000
pop of  0Cu 6fx^3     0.00000
pop of  0Cu 7fy^3     0.00000
pop of  0Cu 7fxyz     0.00000
pop of  0Cu 7fyz^2    0.00000
pop of  0Cu 7fz^3     0.00000
pop of  0Cu 7fxz^2    0.00000
pop of  0Cu 7fzx^2    0.00000
pop of  0Cu 7fx^3     0.00000
pop of  0Cu 5g-4      0.00000
pop of  0Cu 5g-3      0.00000
pop of  0Cu 5g-2      0.00000
pop of  0Cu 5g-1      0.00000
pop of  0Cu 5g 0      0.00000
pop of  0Cu 5g 1      0.00000
pop of  0Cu 5g 2      0.00000
pop of  0Cu 5g 3      0.00000
pop of  0Cu 5g 4      0.00000
pop of  0Cu 6g-4      0.00000
pop of  0Cu 6g-3      0.00000
pop of  0Cu 6g-2      0.00000
pop of  0Cu 6g-1      0.00000
pop of  0Cu 6g 0      0.00000
pop of  0Cu 6g 1      0.00000
pop of  0Cu 6g 2      0.00000
pop of  0Cu 6g 3      0.00000
pop of  0Cu 6g 4      0.00000
pop of  0Cu 7g-4      0.00000
pop of  0Cu 7g-3      0.00000
pop of  0Cu 7g-2      0.00000
pop of  0Cu 7g-1      0.00000
pop of  0Cu 7g 0      0.00000
pop of  0Cu 7g 1      0.00000
pop of  0Cu 7g 2      0.00000
pop of  0Cu 7g 3      0.00000
pop of  0Cu 7g 4      0.00000
pop of  0Cu 6h-5      0.00000
pop of  0Cu 6h-4      0.00000
pop of  0Cu 6h-3      0.00000
pop of  0Cu 6h-2      0.00000
pop of  0Cu 6h-1      0.00000
pop of  0Cu 6h 0      0.00000
pop of  0Cu 6h 1      0.00000
pop of  0Cu 6h 2      0.00000
pop of  0Cu 6h 3      0.00000
pop of  0Cu 6h 4      0.00000
pop of  0Cu 6h 5      0.00000
pop of  0Cu 7h-5      0.00000
pop of  0Cu 7h-4      0.00000
pop of  0Cu 7h-3      0.00000
pop of  0Cu 7h-2      0.00000
pop of  0Cu 7h-1      0.00000
pop of  0Cu 7h 0      0.00000
pop of  0Cu 7h 1      0.00000
pop of  0Cu 7h 2      0.00000
pop of  0Cu 7h 3      0.00000
pop of  0Cu 7h 4      0.00000
pop of  0Cu 7h 5      0.00000
 ** Mulliken atomic charges  **
charge of  0Cu =      1.00000

******** <class 'pyscf.mcscf.mc1step.CASSCF'> flags ********
CAS (5e+5e, 6o), ncore = 4, nvir = 125
max_cycle_macro = 50
max_cycle_micro = 4
conv_tol = 1e-07
conv_tol_grad = None
orbital rotation max_stepsize = 0.02
augmented hessian ah_max_cycle = 30
augmented hessian ah_conv_tol = 1e-12
augmented hessian ah_linear dependence = 1e-14
augmented hessian ah_level shift = 0
augmented hessian ah_start_tol = 2.5
augmented hessian ah_start_cycle = 3
augmented hessian ah_grad_trust_region = 3
kf_trust_region = 3
kf_interval = 4
ci_response_space = 4
ci_grad_trust_region = 3
with_dep4 0
natorb = False
canonicalization = True
chkfile = ./scratch/159424/tmpADd5Bo
max_memory 4000 MB (current use 431 MB)
internal_rotation = False

******** SHCI flags ********
executable             = /home/bamu3429/softwares/dice/Dice
mpiprefix              = mpirun -np 28
scratchDirectory       = ./scratch/159424
integralFile           = ./FCIDUMP
configFile             = ./input.dat
outputFile             = ./output.dat
maxIter                = 6
sweep_iter             = []
sweep_epsilon          = []
nPTiter                = 0
Stochastic             = True
fullrestart            = False
restart                = False
num_thrds              = 12
memory                 = None

CASCI E = -196.322261096106  S^2 = 0.0000000
Set conv_tol_grad to 0.000316228
macro iter 1 (21 JK  4 micro), CASSCF E = -196.323745398058  dE = -0.001484302  S^2 = 0.0000000
               |grad[o]|=0.000781  |grad[c]|= None  |ddm|=0.0019
macro iter 2 (21 JK  4 micro), CASSCF E = -196.324672919711  dE = -0.00092752165  S^2 = 0.0000000
               |grad[o]|=0.00247  |grad[c]|= None  |ddm|=0.000883
macro iter 3 (7 JK  2 micro), CASSCF E = -196.324676452635  dE = -3.5329234e-06  S^2 = 0.0000000
               |grad[o]|=0.000696  |grad[c]|= None  |ddm|=7.87e-05
macro iter 4 (1 JK  1 micro), CASSCF E = -196.324676452635  dE = 0  S^2 = 0.0000000
               |grad[o]|=1.74e-05  |grad[c]|= None  |ddm|=    0
1-step CASSCF converged in 4 macro (50 JK 11 micro) steps
CASSCF canonicalization
CASSCF energy = -196.324676452635


--------------------------------------------------
                 ICMPSPT CALCULATION              
--------------------------------------------------

Perturbation type: MRLCC
With fully internally contracted scheme
With third order correction

Preparing necessary RDMs
......production of RDMs took       0.80 sec
Reading binary 4RDM from DICE
......reading the RDM took          0.96 sec

(GOOD) Trace 4RDM:   5040.0 =   10*    9*    8*    7
(GOOD) Trace 3RDM:    720.0 =   10*    9*    8
(GOOD) Trace 2RDM:     90.0 =   10*    9
(GOOD) Trace 1RDM:     10.0 =   10

Energy_core =  -146.235123202
Energy      =  -196.324676453

WARNING: Have to use natural orbitals from CAASCF
         offdiagonal elements: 1.76347391247

Basic ingredients wrote to int/

Second-order:
perturber CCVV --        -0.112543160
perturber CCAV --        -0.011050554
perturber ACVV --        -0.339835404
perturber CCAA --        -0.000416898
perturber AAVV --        -0.446955712
perturber CAAV --        -0.033926323
perturber AAAV --        -0.007532712
perturber AAAC --        -0.000000001
Total:                   -0.952260764

Third-order:              0.001459967

Total PT       --        -0.950800796

