 &FCI NORB=9 ,NELEC=12 ,MS2=4,
  ORBSYM=1,1,1,1,1,1,1,1,1,
  ISYM=1,
 &END
  8.827685071569e-01    1  1  1  1
  5.108872497512e-03    2  1  2  1
  3.746414226733e-01    2  2  1  1
  6.313644705992e-01    2  2  2  2
  2.610078898661e-03    3  1  3  1
  9.605551393975e-04    3  2  3  1
  3.087265908954e-02    3  2  3  2
  3.332560092166e-01    3  3  1  1
  4.477870781986e-04    3  3  2  1
  5.893191684730e-01    3  3  2  2
  6.741157768033e-01    3  3  3  3
 -9.137533397960e-04    4  1  3  2
  2.610078898661e-03    4  1  4  1
 -9.137533397959e-04    4  2  3  1
 -9.605551393974e-04    4  2  4  1
  3.087265908954e-02    4  2  4  2
 -4.261280874318e-04    4  3  2  1
 -2.925782917482e-06    4  3  3  3
  3.102970168613e-02    4  3  4  3
  3.332560092166e-01    4  4  1  1
 -4.477870781988e-04    4  4  2  1
  5.893191684730e-01    4  4  2  2
  6.120557653751e-01    4  4  3  3
  2.925782917196e-06    4  4  4  3
  6.741157768033e-01    4  4  4  4
 -9.635184474264e-03    5  1  2  1
  1.788057800905e-03    5  1  3  3
 -1.703831429692e-03    5  1  4  3
 -1.788057800905e-03    5  1  4  4
  3.576547336888e-02    5  1  5  1
 -1.291923316757e-01    5  2  1  1
  3.039260252512e-02    5  2  2  2
  3.955374546502e-02    5  2  3  3
  3.955374546502e-02    5  2  4  4
  5.001315588477e-02    5  2  5  2
  5.215186889168e-04    5  3  3  1
  5.414558387386e-03    5  3  3  2
 -4.972518526455e-04    5  3  4  1
 -1.971489692865e-07    5  3  4  2
  4.169130731644e-03    5  3  5  3
 -4.972518526457e-04    5  4  3  1
  1.971489690249e-07    5  4  3  2
 -5.215186889171e-04    5  4  4  1
  5.414558387386e-03    5  4  4  2
  4.169130731644e-03    5  4  5  4
  7.570305155180e-01    5  5  1  1
  3.958671244554e-01    5  5  2  2
  3.494237810722e-01    5  5  3  3
  3.494237810722e-01    5  5  4  4
 -1.307127105813e-01    5  5  5  2
  7.797038830765e-01    5  5  5  5
 -3.761489478430e-03    6  1  3  1
 -2.242088661927e-03    6  1  3  2
  6.128468926664e-03    6  1  4  1
 -5.943449379890e-04    6  1  4  2
  1.227913863113e-03    6  1  5  3
  3.257289190843e-04    6  1  5  4
  3.333183555111e-02    6  1  6  1
 -1.268877293323e-03    6  2  3  1
  2.451434101154e-03    6  2  3  2
 -3.358257015009e-04    6  2  4  1
 -3.995283030064e-03    6  2  4  2
  8.041007141390e-04    6  2  5  3
 -1.309592604988e-03    6  2  5  4
  7.240065045498e-04    6  2  6  1
  6.645609577280e-03    6  2  6  2
 -5.869885345344e-02    6  3  1  1
  8.696701981134e-04    6  3  2  1
  2.520180649157e-02    6  3  2  2
  4.114306298750e-02    6  3  3  3
 -5.701612269894e-03    6  3  4  3
  3.414500394481e-02    6  3  4  4
 -3.294079428715e-03    6  3  5  1
  2.183675383627e-02    6  3  5  2
 -5.292244399076e-02    6  3  5  5
  1.629276381255e-02    6  3  6  3
  9.563771933914e-02    6  4  1  1
  2.307542088322e-04    6  4  2  1
 -4.108047992347e-02    6  4  2  2
 -5.565300042682e-02    6  4  3  3
  3.498872234287e-03    6  4  4  3
 -6.705603638518e-02    6  4  4  4
 -8.735278942679e-04    6  4  5  1
 -3.558262590286e-02    6  4  5  2
  8.622470186280e-02    6  4  5  5
 -2.073722271583e-02    6  4  6  3
  3.736059830725e-02    6  4  6  4
  1.759687146643e-03    6  5  3  1
  1.867613743208e-03    6  5  3  2
  4.670736414002e-04    6  5  4  1
 -3.043323054485e-03    6  5  4  2
 -1.935611067860e-03    6  5  5  3
  3.153990886181e-03    6  5  5  4
 -2.277211366949e-03    6  5  6  1
 -4.729101755464e-03    6  5  6  2
  2.222754378201e-02    6  5  6  5
  8.070448230225e-01    6  6  1  1
 -1.488590566317e-03    6  6  2  1
  4.051441644294e-01    6  6  2  2
  3.610663207047e-01    6  6  3  3
 -4.325855108585e-03    6  6  4  3
  3.654656127407e-01    6  6  4  4
  4.666201995366e-03    6  6  5  1
 -1.304660597561e-01    6  6  5  2
  7.781490880781e-01    6  6  5  5
 -6.098573336499e-02    6  6  6  3
  9.937905991383e-02    6  6  6  4
  8.683832404551e-01    6  6  6  6
  6.128468926663e-03    7  1  3  1
  5.943449379890e-04    7  1  3  2
  3.761489478430e-03    7  1  4  1
 -2.242088661927e-03    7  1  4  2
 -3.257289190842e-04    7  1  5  3
  1.227913863112e-03    7  1  5  4
 -2.415690461124e-03    7  1  6  2
  7.596734806907e-03    7  1  6  5
  3.333183555111e-02    7  1  7  1
  3.358257015006e-04    7  2  3  1
 -3.995283030064e-03    7  2  3  2
 -1.268877293323e-03    7  2  4  1
 -2.451434101154e-03    7  2  4  2
 -1.309592604988e-03    7  2  5  3
 -8.041007141389e-04    7  2  5  4
 -2.415690461124e-03    7  2  6  1
  1.728832206779e-08    7  2  6  5
 -7.240065045498e-04    7  2  7  1
  6.645609577280e-03    7  2  7  2
  9.563771933913e-02    7  3  1  1
 -2.307542088324e-04    7  3  2  1
 -4.108047992347e-02    7  3  2  2
 -6.705603638518e-02    7  3  3  3
 -3.498872234286e-03    7  3  4  3
 -5.565300042682e-02    7  3  4  4
  8.735278942682e-04    7  3  5  1
 -3.558262590285e-02    7  3  5  2
  8.622470186280e-02    7  3  5  5
 -2.073610761313e-02    7  3  6  3
  3.022199552853e-02    7  3  6  4
  8.856211275034e-02    7  3  6  6
  3.736059830725e-02    7  3  7  3
  5.869885345344e-02    7  4  1  1
  8.696701981134e-04    7  4  2  1
 -2.520180649157e-02    7  4  2  2
 -3.414500394481e-02    7  4  3  3
 -5.701612269894e-03    7  4  4  3
 -4.114306298750e-02    7  4  4  4
 -3.294079428715e-03    7  4  5  1
 -2.183675383627e-02    7  4  5  2
  5.292244399076e-02    7  4  5  5
 -9.158136472195e-03    7  4  6  3
  2.073610761313e-02    7  4  6  4
  5.436751190453e-02    7  4  6  6
  2.073722271583e-02    7  4  7  3
  1.629276381255e-02    7  4  7  4
 -4.670736414005e-04    7  5  3  1
 -3.043323054485e-03    7  5  3  2
  1.759687146644e-03    7  5  4  1
 -1.867613743208e-03    7  5  4  2
  3.153990886181e-03    7  5  5  3
  1.935611067860e-03    7  5  5  4
  7.596734806909e-03    7  5  6  1
 -1.728832194762e-08    7  5  6  2
  2.277211366949e-03    7  5  7  1
 -4.729101755464e-03    7  5  7  2
  2.222754378201e-02    7  5  7  5
  4.964964025666e-03    7  6  2  1
 -4.322451581344e-03    7  6  3  3
  2.193622981392e-03    7  6  4  3
  4.322451581343e-03    7  6  4  4
 -1.556549152050e-02    7  6  5  1
  5.375985650021e-03    7  6  6  3
  3.310231178109e-03    7  6  6  4
  7.146229669009e-05    7  6  6  6
 -3.310231178109e-03    7  6  7  3
  5.375985650021e-03    7  6  7  4
  3.299689139050e-02    7  6  7  6
  8.070448230225e-01    7  7  1  1
  1.488590566317e-03    7  7  2  1
  4.051441644294e-01    7  7  2  2
  3.654656127407e-01    7  7  3  3
  4.325855108585e-03    7  7  4  3
  3.610663207047e-01    7  7  4  4
 -4.666201995365e-03    7  7  5  1
 -1.304660597561e-01    7  7  5  2
  7.781490880781e-01    7  7  5  5
 -5.436751190453e-02    7  7  6  3
  8.856211275034e-02    7  7  6  4
  8.019569052680e-01    7  7  6  6
  9.937905991383e-02    7  7  7  3
  6.098573336499e-02    7  7  7  4
 -7.146229669057e-05    7  7  7  6
  8.683832404551e-01    7  7  7  7
 -2.928919839322e-05    8  1  1  1
 -4.903766474964e-06    8  1  2  2
 -2.742000563649e-06    8  1  3  3
 -2.742000563864e-06    8  1  4  4
  6.721339774667e-06    8  1  5  2
 -2.323305050246e-05    8  1  5  5
  6.142085952209e-06    8  1  6  3
 -2.172019563858e-06    8  1  6  4
 -2.619802543806e-05    8  1  6  6
 -2.172019563753e-06    8  1  7  3
 -6.142085952550e-06    8  1  7  4
 -2.619802543847e-05    8  1  7  7
  1.902677528068e-02    8  1  8  1
 -2.166769061283e-07    8  2  2  1
  3.759463798699e-04    8  2  3  3
  3.946102802835e-04    8  2  4  3
 -3.759463798664e-04    8  2  4  4
  1.107026865096e-06    8  2  5  1
 -2.390315012016e-04    8  2  6  3
  9.002885999572e-04    8  2  6  4
  5.144195194392e-03    8  2  6  6
 -9.002885999601e-04    8  2  7  3
 -2.390315012033e-04    8  2  7  4
  1.541520496541e-03    8  2  7  6
 -5.144195194403e-03    8  2  7  7
  5.206112440088e-03    8  2  8  2
  1.090185497132e-07    8  3  3  1
  8.640927568703e-04    8  3  3  2
 -1.234634366220e-03    8  3  4  1
  9.079347363022e-04    8  3  4  2
  4.433520288490e-04    8  3  5  3
  4.643812433791e-04    8  3  5  4
 -2.820996069456e-03    8  3  6  1
  3.280303038591e-04    8  3  6  2
 -4.653220787662e-04    8  3  6  5
 -1.731607547400e-03    8  3  7  1
  1.240123725083e-03    8  3  7  2
 -1.753240966101e-03    8  3  7  5
  2.554829259158e-03    8  3  8  3
  1.234634366219e-03    8  4  3  1
  9.079347363021e-04    8  4  3  2
  1.090185496306e-07    8  4  4  1
 -8.640927568699e-04    8  4  4  2
  4.643812433791e-04    8  4  5  3
 -4.433520288485e-04    8  4  5  4
 -1.731607547400e-03    8  4  6  1
 -1.240123725083e-03    8  4  6  2
  1.753240966101e-03    8  4  6  5
  2.820996069456e-03    8  4  7  1
  3.280303038593e-04    8  4  7  2
 -4.653220787663e-04    8  4  7  5
  2.554829259157e-03    8  4  8  4
  9.849198283802e-07    8  5  2  1
  1.657191452054e-03    8  5  3  3
  1.738668300196e-03    8  5  4  3
 -1.657191452052e-03    8  5  4  4
 -1.090609140350e-06    8  5  5  1
  8.820896764198e-04    8  5  6  3
 -3.325913984506e-03    8  5  6  4
 -1.576918871153e-02    8  5  6  6
  3.325913984505e-03    8  5  7  3
  8.820896764190e-04    8  5  7  4
 -4.726802395311e-03    8  5  7  6
  1.576918871153e-02    8  5  7  7
 -1.010045822890e-02    8  5  8  2
  3.627898916457e-02    8  5  8  5
  2.856622908913e-03    8  6  3  1
  5.939881522421e-04    8  6  3  2
  1.753032533179e-03    8  6  4  1
 -2.241098531907e-03    8  6  4  2
 -3.308354878733e-04    8  6  5  3
  1.246963291159e-03    8  6  5  4
 -1.379715715788e-06    8  6  6  1
 -2.391591923727e-03    8  6  6  2
  7.728175072407e-03    8  6  6  5
  1.513010846606e-02    8  6  7  1
 -7.170002045813e-04    8  6  7  2
  2.316054445668e-03    8  6  7  5
 -3.823345719565e-03    8  6  8  3
  6.229401029306e-03    8  6  8  4
  3.420125890568e-02    8  6  8  6
  1.753032533179e-03    8  7  3  1
  2.241098531907e-03    8  7  3  2
 -2.856622908913e-03    8  7  4  1
  5.939881522421e-04    8  7  4  2
 -1.246963291159e-03    8  7  5  3
 -3.308354878735e-04    8  7  5  4
 -1.513010846605e-02    8  7  6  1
 -7.170002045813e-04    8  7  6  2
  2.316054445668e-03    8  7  6  5
 -1.379715715576e-06    8  7  7  1
  2.391591923727e-03    8  7  7  2
 -7.728175072409e-03    8  7  7  5
  6.229401029305e-03    8  7  8  3
  3.823345719565e-03    8  7  8  4
  3.420125890568e-02    8  7  8  7
  8.574214152152e-01    8  8  1  1
  3.768402977252e-01    8  8  2  2
  3.344883320246e-01    8  8  3  3
  3.344883320246e-01    8  8  4  4
 -1.321365754812e-01    8  8  5  2
  7.672371160089e-01    8  8  5  5
 -5.986366679566e-02    8  8  6  3
  9.753549644829e-02    8  8  6  4
  8.186166131372e-01    8  8  6  6
  9.753549644829e-02    8  8  7  3
  5.986366679566e-02    8  8  7  4
  8.186166131372e-01    8  8  7  7
 -3.019146324571e-05    8  8  8  1
  9.085706321216e-01    8  8  8  8
  5.354769957009e-03    9  1  2  1
  2.911493290501e-04    9  1  3  3
 -2.767886366553e-04    9  1  4  3
 -2.911493290492e-04    9  1  4  4
 -5.847522458224e-03    9  1  5  1
  6.763589191049e-04    9  1  6  3
  1.791462917477e-04    9  1  6  4
 -9.438610106392e-04    9  1  6  6
 -1.791462917478e-04    9  1  7  3
  6.763589191049e-04    9  1  7  4
  3.146453926124e-03    9  1  7  6
  9.438610106395e-04    9  1  7  7
 -1.889896017305e-07    9  1  8  2
  1.868280850374e-06    9  1  8  5
  8.091141151261e-03    9  1  9  1
  5.713504398043e-02    9  2  1  1
 -1.612233815488e-01    9  2  2  2
 -1.566127820656e-01    9  2  3  3
 -1.566127820656e-01    9  2  4  4
 -4.707522458996e-02    9  2  5  2
  4.265996276742e-02    9  2  5  5
 -2.649186854014e-02    9  2  6  3
  4.317412138523e-02    9  2  6  4
  4.433523104806e-02    9  2  6  6
  4.317412138523e-02    9  2  7  3
  2.649186854013e-02    9  2  7  4
  4.433523104806e-02    9  2  7  7
 -2.445436181196e-06    9  2  8  1
  5.820043612573e-02    9  2  8  8
  1.005455812773e-01    9  2  9  2
 -1.618507695182e-04    9  3  3  1
 -1.150333383703e-02    9  3  3  2
  1.553211539797e-04    9  3  4  1
 -1.227077854571e-07    9  3  4  2
 -3.274741638294e-03    9  3  5  3
  1.629764247345e-07    9  3  5  4
 -1.943739365486e-04    9  3  6  1
 -1.436474014037e-03    9  3  6  2
  2.497556973311e-06    9  3  6  5
  5.173354306183e-05    9  3  7  1
  2.340924492834e-03    9  3  7  2
 -3.303462876052e-06    9  3  7  5
 -1.601842588707e-04    9  3  8  3
 -1.669802362038e-04    9  3  8  4
  5.052497837489e-05    9  3  8  6
  1.900143757905e-04    9  3  8  7
  7.652303488656e-03    9  3  9  3
  1.553211539798e-04    9  4  3  1
  1.227077855551e-07    9  4  3  2
  1.618507695185e-04    9  4  4  1
 -1.150333383703e-02    9  4  4  2
 -1.629764246537e-07    9  4  5  3
 -3.274741638294e-03    9  4  5  4
 -5.173354306175e-05    9  4  6  1
  2.340924492834e-03    9  4  6  2
 -3.303462876064e-06    9  4  6  5
 -1.943739365486e-04    9  4  7  1
  1.436474014037e-03    9  4  7  2
 -2.497556973256e-06    9  4  7  5
 -1.669802362037e-04    9  4  8  3
  1.601842588703e-04    9  4  8  4
 -1.900143757903e-04    9  4  8  6
  5.052497837494e-05    9  4  8  7
  7.652303488656e-03    9  4  9  4
 -1.111544159245e-01    9  5  1  1
 -7.784396925175e-02    9  5  2  2
 -6.524963331698e-02    9  5  3  3
 -6.524963331698e-02    9  5  4  4
  2.389574548510e-02    9  5  5  2
 -1.228040901404e-01    9  5  5  5
  6.044871167388e-03    9  5  6  3
 -9.843983412192e-03    9  5  6  4
 -1.241975846215e-01    9  5  6  6
 -9.843983412192e-03    9  5  7  3
 -6.044871167387e-03    9  5  7  4
 -1.241975846215e-01    9  5  7  7
  6.981164674358e-06    9  5  8  1
 -1.141885384759e-01    9  5  8  8
  1.376843042369e-02    9  5  9  2
  4.300204273226e-02    9  5  9  5
 -3.352206823262e-04    9  6  3  1
 -2.151178729107e-03    9  6  3  2
 -8.913110897445e-05    9  6  4  1
  3.506128278450e-03    9  6  4  2
  3.522083700591e-04    9  6  5  3
 -5.730800696070e-04    9  6  5  4
  1.145800403606e-03    9  6  6  1
  3.501611413654e-03    9  6  6  2
 -4.260189998042e-03    9  6  6  5
 -3.822979100073e-03    9  6  7  1
  7.032038551804e-09    9  6  7  2
  4.617776274632e-08    9  6  7  5
  8.885611297701e-05    9  6  8  3
 -3.343344802566e-04    9  6  8  4
 -3.760603298586e-03    9  6  8  6
 -1.127662975523e-03    9  6  8  7
  3.754543488382e-04    9  6  9  3
 -6.108681751518e-04    9  6  9  4
  9.604414214306e-03    9  6  9  6
  8.913110897453e-05    9  7  3  1
  3.506128278450e-03    9  7  3  2
 -3.352206823263e-04    9  7  4  1
  2.151178729107e-03    9  7  4  2
 -5.730800696070e-04    9  7  5  3
 -3.522083700591e-04    9  7  5  4
 -3.822979100073e-03    9  7  6  1
 -7.032038543567e-09    9  7  6  2
 -4.617776254798e-08    9  7  6  5
 -1.145800403606e-03    9  7  7  1
  3.501611413654e-03    9  7  7  2
 -4.260189998043e-03    9  7  7  5
  3.343344802567e-04    9  7  8  3
  8.885611297697e-05    9  7  8  4
 -1.127662975523e-03    9  7  8  6
  3.760603298585e-03    9  7  8  7
 -6.108681751517e-04    9  7  9  3
 -3.754543488381e-04    9  7  9  4
  9.604414214306e-03    9  7  9  7
 -2.225241783517e-07    9  8  2  1
  2.313334293022e-04    9  8  3  3
  2.429973040307e-04    9  8  4  3
 -2.313334293082e-04    9  8  4  4
  2.070605318318e-06    9  8  5  1
 -1.955427838083e-04    9  8  6  3
  7.368863304736e-04    9  8  6  4
  3.453690558198e-03    9  8  6  6
 -7.368863304745e-04    9  8  7  3
 -1.955427838089e-04    9  8  7  4
  1.034238380490e-03    9  8  7  6
 -3.453690558210e-03    9  8  7  7
  5.434887776263e-03    9  8  8  2
 -6.656802019473e-03    9  8  8  5
  2.399684195895e-07    9  8  9  1
  7.988660226916e-03    9  8  9  8
  3.920421101565e-01    9  9  1  1
  3.357351994905e-01    9  9  2  2
  3.102197879423e-01    9  9  3  3
  3.102197879423e-01    9  9  4  4
 -2.420358432601e-02    9  9  5  2
  3.895383101614e-01    9  9  5  5
 -1.052769666499e-02    9  9  6  3
  1.715311438147e-02    9  9  6  4
  3.988913120299e-01    9  9  6  6
  1.715311438147e-02    9  9  7  3
  1.052769666499e-02    9  9  7  4
  3.988913120299e-01    9  9  7  7
 -5.033144229466e-06    9  9  8  1
  3.942926348702e-01    9  9  8  8
 -4.732076811977e-04    9  9  9  2
 -3.478920813870e-02    9  9  9  5
  3.265479258744e-01    9  9  9  9
 -6.661564767441e+00    1  1  0  0
 -5.501226390888e+00    2  2  0  0
 -5.318004123745e+00    3  3  0  0
 -5.318004123745e+00    4  4  0  0
  6.233789822309e-01    5  2  0  0
 -6.399805247780e+00    5  5  0  0
  2.047424698168e-01    6  3  0  0
 -3.335027188914e-01    6  4  0  0
 -6.698442880894e+00    6  6  0  0
 -3.335027188914e-01    7  3  0  0
 -2.047424698168e-01    7  4  0  0
 -6.698442880894e+00    7  7  0  0
  1.476724781742e-04    8  1  0  0
 -6.723161060937e+00    8  8  0  0
  4.121296119329e-01    9  2  0  0
  8.958413773355e-01    9  5  0  0
 -4.046513706034e+00    9  9  0  0
   -100.001510817198   0  0  0  0
