#INFO: **** input file is /projects/bamu3429/BENCHMARK/fresh_atoms/MRPT/vtz/monoxides/FeO/mrpt.py ****
import json
from pyscf import gto,scf,mcscf, fci, lo, ci, cc
from pyscf.scf import ROHF, UHF,ROKS
import numpy as np
import pandas as pd

# THIS IS WERE IT STARTS ====================================

df=json.load(open("../../../trail.json"))

spins={'ScO':1, 'TiO':2, 'VO':3, 'CrO':4, 'MnO':5, 'FeO':4, 'CuO':1}

nd={'Sc':(1,0), 'Ti':(2,0), 'V':(3,0), 'Cr':(5,0), 'Mn':(5,0), 'Fe':(5,1), 'Cu':(5,4)}

cas={'Sc':3, 'Ti':4, 'V':5, 'Cr':6, 'Mn':7, 'Fe':8, 'Cu':11}

re={'ScO':1.668, 'TiO':1.623, 'VO':1.591, 'CrO':1.621, 'MnO':1.648, 'FeO':1.616, 'CuO':1.725}

datacsv={}
for nm in ['basis','charge','method','molecule','pseudopotential',
           'totalenergy','totalenergy-stocherr','totalenergy-syserr']:
  datacsv[nm]=[]

basis='vtz'
element='Fe'

mol=gto.Mole()
mol.ecp={}
mol.basis={}
for el in [element,'O']:
  mol.ecp[el]=gto.basis.parse_ecp(df[el]['ecp'])
  mol.basis[el]=gto.basis.parse(df[el][basis])
mol.charge=0
mol.spin=spins[element+'O']
mol.build(atom="%s 0. 0. 0.; O 0. 0. %g"%(element,re[element+'O']),verbose=4)

m=ROHF(mol)
m.level_shift=1000.0
dm=m.from_chk("../../../../HF/monoxides/"+element+basis+"0.chk")
hf=m.kernel(dm)
m.analyze()

from pyscf.shciscf import shci
mc = shci.SHCISCF(m, 9, 4+cas[element])
#mc.fcisolver.conv_tol = 1e-14
mc.fcisolver.mpiprefix="mpirun -np 28"
mc.fcisolver.num_thrds=12
mc.verbose = 4
cas=mc.kernel()[0]
 
from pyscf.icmpspt import icmpspt
pt=icmpspt.icmpspt(mc,rdmM=500, PTM=1000,\
                          pttype="MRLCC",\
                          third_order=True,\
                          fully_ic=True,\
                          do_dm4=True)

datacsv['basis'].append(basis)
datacsv['charge'].append(0)
datacsv['method'].append('MRPT')
datacsv['molecule'].append(element)
datacsv['pseudopotential'].append('trail')
datacsv['totalenergy'].append(cas+pt)
datacsv['totalenergy-stocherr'].append(0.0)
datacsv['totalenergy-syserr'].append(0.0)
pd.DataFrame(datacsv).to_csv(element+".csv",index=False)

#INFO: ******************** input file end ********************


System: ('Linux', 'bnode0304.rc.int.colorado.edu', '3.10.0-514.41.1.el7.x86_64', '#1 SMP Wed Jan 17 10:26:16 EST 2018', 'x86_64', 'x86_64')  Threads 28
Python 2.7.11 (default, Mar 22 2016, 01:42:54) 
[GCC Intel(R) C++ gcc 4.8 mode]
numpy 1.11.1  scipy 0.17.1
Date: Thu Mar 29 16:18:47 2018
PySCF version 1.4
PySCF path  /projects/bamu3429/softwares/pyscf_uptodate/pyscf
GIT ORIG_HEAD e2292e6edec2b0e0024c21b81de03db1d7bd4121
GIT HEAD      ref: refs/heads/master
GIT master branch  f3591ef22170896a4cdc2aadaa6f5da388ffcadb

[INPUT] VERBOSE 4
[INPUT] num atoms = 2
[INPUT] num electrons = 22
[INPUT] charge = 0
[INPUT] spin (= nelec alpha-beta = 2S) = 4
[INPUT] symmetry False subgroup None
[INPUT]  1 Fe     0.000000000000   0.000000000000   0.000000000000 AA    0.000000000000   0.000000000000   0.000000000000 Bohr
[INPUT]  2 O      0.000000000000   0.000000000000   1.616000000000 AA    0.000000000000   0.000000000000   3.053797417297 Bohr
[INPUT] ---------------- BASIS SET ---------------- 
[INPUT] l, kappa, [nprim/nctr], expnt,             c_1 c_2 ...
[INPUT] Fe
[INPUT] 0    0    [12   /1   ]  41.79315189       0.013363
                                21.4479766        -0.225831
                                13.50597996       1.092302
                                9.47978339        -1.379238
                                4.48116767        0.183004
                                2.00533715        0.377557
                                1.21557711        0.591529
                                0.52042955        0.236703
                                0.24120153        -0.029854
                                0.11142434        0.02048
                                0.05213724        -0.006828
                                0.02419858        0.002604
[INPUT] 0    0    [12   /1   ]  41.79315189       -0.002034
                                21.4479766        0.04181
                                13.50597996       -0.22265
                                9.47978339        0.296462
                                4.48116767        -0.039261
                                2.00533715        -0.090727
                                1.21557711        -0.230375
                                0.52042955        -0.197211
                                0.24120153        0.111234
                                0.11142434        0.439139
                                0.05213724        0.516418
                                0.02419858        0.126845
[INPUT] 0    0    [12   /1   ]  41.79315189       -0.004624
                                21.4479766        0.139122
                                13.50597996       -0.88629
                                9.47978339        1.342491
                                4.48116767        -0.386645
                                2.00533715        -1.289136
                                1.21557711        0.203208
                                0.52042955        0.587093
                                0.24120153        0.75499
                                0.11142434        0.148125
                                0.05213724        -0.57141
                                0.02419858        -0.318371
[INPUT] 0    0    [12   /1   ]  41.79315189       -0.003085
                                21.4479766        0.157954
                                13.50597996       -1.176019
                                9.47978339        1.974187
                                4.48116767        -0.963904
                                2.00533715        -2.385892
                                1.21557711        2.080105
                                0.52042955        1.415026
                                0.24120153        -1.191846
                                0.11142434        -1.007091
                                0.05213724        0.554221
                                0.02419858        0.59334
[INPUT] 0    0    [1    /1   ]  0.02419858           1
[INPUT] 0    0    [1    /1   ]  0.01123134           1
[INPUT] 1    0    [12   /1   ]  66.19105244       0.00032
                                34.58074578       -0.003142
                                17.77781378       0.029707
                                9.38371315        -0.152873
                                5.85185491        0.094627
                                3.39352009        0.227547
                                1.80084269        0.448024
                                0.88349057        0.318306
                                0.45376195        0.097682
                                0.18864625        0.012314
                                0.07756623        -0.001004
                                0.03189313        0.000474
[INPUT] 1    0    [12   /1   ]  66.19105244       -1.8e-05
                                34.58074578       0.000416
                                17.77781378       -0.005911
                                9.38371315        0.03555
                                5.85185491        -0.025962
                                3.39352009        -0.059781
                                1.80084269        -0.122371
                                0.88349057        -0.102075
                                0.45376195        0.039881
                                0.18864625        0.346137
                                0.07756623        0.528115
                                0.03189313        0.237416
[INPUT] 1    0    [12   /1   ]  66.19105244       -0.000861
                                34.58074578       0.002748
                                17.77781378       0.01593
                                9.38371315        -0.209763
                                5.85185491        0.179034
                                3.39352009        0.814145
                                1.80084269        0.03855
                                0.88349057        -0.875838
                                0.45376195        -0.34746
                                0.18864625        0.631788
                                0.07756623        0.399045
                                0.03189313        0.003561
[INPUT] 1    0    [12   /1   ]  66.19105244       -0.001607
                                34.58074578       0.006226
                                17.77781378       0.025483
                                9.38371315        -0.54041
                                5.85185491        1.16772
                                3.39352009        0.772818
                                1.80084269        -1.572667
                                0.88349057        -0.61263
                                0.45376195        1.561245
                                0.18864625        -0.107594
                                0.07756623        -0.646326
                                0.03189313        0.002096
[INPUT] 1    0    [1    /1   ]  0.03189313           1
[INPUT] 1    0    [1    /1   ]  0.01311358           1
[INPUT] 2    0    [10   /1   ]  58.21685909       0.000311
                                24.96806153       -0.010386
                                12.44413704       0.126915
                                5.48395408        0.166806
                                2.79137309        0.262721
                                1.34407118        0.316542
                                0.61230651        0.280074
                                0.27095461        0.158069
                                0.12811374        0.049028
                                0.05904405        0.008369
[INPUT] 2    0    [10   /1   ]  58.21685909       0.000374
                                24.96806153       0.007401
                                12.44413704       -0.12958
                                5.48395408        -0.233171
                                2.79137309        -0.387571
                                1.34407118        -0.056586
                                0.61230651        0.33938
                                0.27095461        0.403227
                                0.12811374        0.20401
                                0.05904405        0.046291
[INPUT] 2    0    [10   /1   ]  58.21685909       -0.001716
                                24.96806153       -0.000551
                                12.44413704       0.130748
                                5.48395408        0.429828
                                2.79137309        0.259447
                                1.34407118        -0.684658
                                0.61230651        -0.396877
                                0.27095461        0.349872
                                0.12811374        0.4289
                                0.05904405        0.113763
[INPUT] 2    0    [1    /1   ]  0.05904405           1
[INPUT] 2    0    [1    /1   ]  0.02721175           1
[INPUT] 3    0    [1    /1   ]  3.759443             1
[INPUT] 3    0    [1    /1   ]  1.028316             1
[INPUT] 3    0    [1    /1   ]  0.28127405           1
[INPUT] 4    0    [1    /1   ]  3.347806             1
[INPUT] 4    0    [1    /1   ]  0.91572139           1
[INPUT] O
[INPUT] 0    0    [10   /1   ]  57.663349         -0.002794
                                35.726816         0.023976
                                22.453757         -0.115974
                                14.732301         0.288033
                                9.739917          -0.274786
                                5.042008          -0.083789
                                2.157818          0.063778
                                1.002916          0.410182
                                0.421839          0.504044
                                0.173041          0.172152
[INPUT] 0    0    [1    /1   ]  1.849096             1
[INPUT] 0    0    [1    /1   ]  0.255434             1
[INPUT] 0    0    [1    /1   ]  0.141483             1
[INPUT] 1    0    [10   /1   ]  52.47406          -0.000522
                                32.138432         0.004857
                                19.458579         -0.027749
                                11.839344         0.074258
                                7.91003           0.014369
                                3.670858          0.153479
                                1.53966           0.283685
                                0.647119          0.358201
                                0.267853          0.29559
                                0.107198          0.104889
[INPUT] 1    0    [1    /1   ]  0.622175             1
[INPUT] 1    0    [1    /1   ]  0.193391             1
[INPUT] 1    0    [1    /1   ]  0.052779             1
[INPUT] 2    0    [1    /1   ]  2.324251             1
[INPUT] 2    0    [1    /1   ]  0.656935             1
[INPUT] 2    0    [1    /1   ]  0.2072               1
[INPUT] 3    0    [1    /1   ]  1.423472             1
[INPUT] 3    0    [1    /1   ]  0.48761              1
nuclear repulsion = 31.4362699556436
number of shells = 35
number of NR pGTOs = 480
number of NR cGTOs = 133
basis = {'Fe': [[0, [41.79315189, 0.013363], [21.4479766, -0.225831], [13.50597996, 1.092302], [9.47978339, -1.379238], [4.48116767, 0.183004], [2.00533715, 0.377557], [1.21557711, 0.591529], [0.52042955, 0.236703], [0.24120153, -0.029854], [0.11142434, 0.02048], [0.05213724, -0.006828], [0.02419858, 0.002604]], [0, [41.79315189, -0.002034], [21.4479766, 0.04181], [13.50597996, -0.22265], [9.47978339, 0.296462], [4.48116767, -0.039261], [2.00533715, -0.090727], [1.21557711, -0.230375], [0.52042955, -0.197211], [0.24120153, 0.111234], [0.11142434, 0.439139], [0.05213724, 0.516418], [0.02419858, 0.126845]], [0, [41.79315189, -0.004624], [21.4479766, 0.139122], [13.50597996, -0.88629], [9.47978339, 1.342491], [4.48116767, -0.386645], [2.00533715, -1.289136], [1.21557711, 0.203208], [0.52042955, 0.587093], [0.24120153, 0.75499], [0.11142434, 0.148125], [0.05213724, -0.57141], [0.02419858, -0.318371]], [0, [41.79315189, -0.003085], [21.4479766, 0.157954], [13.50597996, -1.176019], [9.47978339, 1.974187], [4.48116767, -0.963904], [2.00533715, -2.385892], [1.21557711, 2.080105], [0.52042955, 1.415026], [0.24120153, -1.191846], [0.11142434, -1.007091], [0.05213724, 0.554221], [0.02419858, 0.59334]], [0, [0.02419858, 1.0]], [0, [0.01123134, 1.0]], [1, [66.19105244, 0.00032], [34.58074578, -0.003142], [17.77781378, 0.029707], [9.38371315, -0.152873], [5.85185491, 0.094627], [3.39352009, 0.227547], [1.80084269, 0.448024], [0.88349057, 0.318306], [0.45376195, 0.097682], [0.18864625, 0.012314], [0.07756623, -0.001004], [0.03189313, 0.000474]], [1, [66.19105244, -1.8e-05], [34.58074578, 0.000416], [17.77781378, -0.005911], [9.38371315, 0.03555], [5.85185491, -0.025962], [3.39352009, -0.059781], [1.80084269, -0.122371], [0.88349057, -0.102075], [0.45376195, 0.039881], [0.18864625, 0.346137], [0.07756623, 0.528115], [0.03189313, 0.237416]], [1, [66.19105244, -0.000861], [34.58074578, 0.002748], [17.77781378, 0.01593], [9.38371315, -0.209763], [5.85185491, 0.179034], [3.39352009, 0.814145], [1.80084269, 0.03855], [0.88349057, -0.875838], [0.45376195, -0.34746], [0.18864625, 0.631788], [0.07756623, 0.399045], [0.03189313, 0.003561]], [1, [66.19105244, -0.001607], [34.58074578, 0.006226], [17.77781378, 0.025483], [9.38371315, -0.54041], [5.85185491, 1.16772], [3.39352009, 0.772818], [1.80084269, -1.572667], [0.88349057, -0.61263], [0.45376195, 1.561245], [0.18864625, -0.107594], [0.07756623, -0.646326], [0.03189313, 0.002096]], [1, [0.03189313, 1.0]], [1, [0.01311358, 1.0]], [2, [58.21685909, 0.000311], [24.96806153, -0.010386], [12.44413704, 0.126915], [5.48395408, 0.166806], [2.79137309, 0.262721], [1.34407118, 0.316542], [0.61230651, 0.280074], [0.27095461, 0.158069], [0.12811374, 0.049028], [0.05904405, 0.008369]], [2, [58.21685909, 0.000374], [24.96806153, 0.007401], [12.44413704, -0.12958], [5.48395408, -0.233171], [2.79137309, -0.387571], [1.34407118, -0.056586], [0.61230651, 0.33938], [0.27095461, 0.403227], [0.12811374, 0.20401], [0.05904405, 0.046291]], [2, [58.21685909, -0.001716], [24.96806153, -0.000551], [12.44413704, 0.130748], [5.48395408, 0.429828], [2.79137309, 0.259447], [1.34407118, -0.684658], [0.61230651, -0.396877], [0.27095461, 0.349872], [0.12811374, 0.4289], [0.05904405, 0.113763]], [2, [0.05904405, 1.0]], [2, [0.02721175, 1.0]], [3, [3.759443, 1.0]], [3, [1.028316, 1.0]], [3, [0.28127405, 1.0]], [4, [3.347806, 1.0]], [4, [0.91572139, 1.0]]], 'O': [[0, [57.663349, -0.002794], [35.726816, 0.023976], [22.453757, -0.115974], [14.732301, 0.288033], [9.739917, -0.274786], [5.042008, -0.083789], [2.157818, 0.063778], [1.002916, 0.410182], [0.421839, 0.504044], [0.173041, 0.172152]], [0, [1.849096, 1.0]], [0, [0.255434, 1.0]], [0, [0.141483, 1.0]], [1, [52.47406, -0.000522], [32.138432, 0.004857], [19.458579, -0.027749], [11.839344, 0.074258], [7.91003, 0.014369], [3.670858, 0.153479], [1.53966, 0.283685], [0.647119, 0.358201], [0.267853, 0.29559], [0.107198, 0.104889]], [1, [0.622175, 1.0]], [1, [0.193391, 1.0]], [1, [0.052779, 1.0]], [2, [2.324251, 1.0]], [2, [0.656935, 1.0]], [2, [0.2072, 1.0]], [3, [1.423472, 1.0]], [3, [0.48761, 1.0]]]}
ecp = {'Fe': [10, [[-1, [[], [[16.90683491, 16.0]], [[18.40258134, 26847.81569895], [6.30300831, -133.54888707], [18.42848726, -26765.4049232], [18.43432023, 1.00742417]], [[7.01300654, 270.50935856]]]], [0, [[], [], [[9.62463353, 20308.8999348], [9.1270955, -17595.21707731], [7.5416384, 1884.69012383], [12.70900949, -4483.50209856], [8.14863339, -1094.38597968], [16.27611739, 1032.95376659]], []]], [1, [[], [], [[11.36514719, -905.00711112], [14.56762424, 34640.9358259], [15.05861359, -42299.94223895], [17.41337089, 10633.68808757], [18.3746752, -5844.19723669], [17.04734437, 3803.80414779]], []]], [2, [[], [], [[10.13935738, -11031.18647055], [13.45796076, 16711.37502047], [10.97387824, 37989.95033676], [11.92919033, -41782.92514683], [17.7123012, 3812.58339812], [17.32108913, -5718.00854971]], []]]]], 'O': [2, [[-1, [[], [[10.27717748, 6.0]], [[15.99566749, 1232.50197768], [10.46901775, -696.47008301], [14.6384801, -2654.22657081], [12.57591181, 2101.67732548]], [[7.77739102, 61.66306486]]]], [0, [[], [], [[12.39426073, -656683.37638839], [12.38126171, 657858.57667068], [8.57671033, 511.50098405], [9.89256508, -2579.54665641], [28.05641604, -57.68129584], [17.24753607, 970.30940152]], []]], [1, [[], [], [[14.78918914, -363027.24258186], [14.82014018, 361852.52314043], [22.89622221, -1300.20069256], [8.51331893, -181.96869573], [11.48609758, 2194.87589959], [27.22017524, 451.19906206]], []]]]]}
CPU time:         3.62


******** <class 'pyscf.scf.rohf.ROHF'> flags ********
method = ROHF
initial guess = minao
damping factor = 0
level shift factor = 1000.0
DIIS = <class 'pyscf.scf.diis.CDIIS'>
DIIS start cycle = 1
DIIS space = 8
SCF tol = 1e-09
SCF gradient tol = None
max. SCF cycles = 50
direct_scf = True
direct_scf_tol = 1e-13
chkfile to save SCF result = /projects/bamu3429/BENCHMARK/fresh_atoms/MRPT/vtz/monoxides/FeO/tmpnpyLuf
max_memory 4000 MB (current use 109 MB)
num. doubly occ = 9  num. singly occ = 4
Set gradient conv threshold to 3.16228e-05
init E= -138.670997589923
  HOMO = 499.857973599812  LUMO = 999.964725617805
cycle= 1 E= -138.670997589924  delta_E= -5.97e-13  |g|= 1.11e-05  |ddm|= 4.59e-08
  HOMO = -0.142026400009243  LUMO = -0.0352743816500941
Extra cycle  E= -138.670997590039  delta_E= -1.15e-10  |g|= 7.53e-06  |ddm|= 3.26e-05
converged SCF energy = -138.670997590039
**** MO energy ****
                Roothaan           | alpha              | beta
MO #1   energy= -4.40573221821483  | -4.57895230851423  | -4.23251217039891  occ= 2
MO #2   energy= -2.79426148618294  | -3.0431360297981   | -2.54538696892967  occ= 2
MO #3   energy= -2.7857114169161   | -2.97357404661087  | -2.59784878165617  occ= 2
MO #4   energy= -2.78571141691609  | -2.97357404661087  | -2.59784878165617  occ= 2
MO #5   energy= -1.11741270456134  | -1.13132415774044  | -1.10350125538743  occ= 2
MO #6   energy= -0.539796681812289 | -0.600061923507403 | -0.479531440117173 occ= 2
MO #7   energy= -0.413843409825268 | -0.44412762249622  | -0.383563677661176 occ= 2
MO #8   energy= -0.388281337269879 | -0.415048519026567 | -0.361513767310764 occ= 2
MO #9   energy= -0.388281337269878 | -0.415048519026565 | -0.361513767310762 occ= 2
MO #10  energy= -0.150011401945381 | -0.567134328929161 | 0.267113917861515  occ= 1
MO #11  energy= -0.144024880294756 | -0.621958282669446 | 0.33390878689312   occ= 1
MO #12  energy= -0.144024880294751 | -0.62195828266944  | 0.333908786893121  occ= 1
MO #13  energy= -0.142026400009243 | -0.648340864447567 | 0.364288135881669  occ= 1
MO #14  energy= -0.0352743816500941 | -0.0456891132025414 | -0.0248592227672114 occ= 0
MO #15  energy= 0.0182686242444038 | 0.0170305994573076 | 0.0195066007333215 occ= 0
MO #16  energy= 0.0182686242444046 | 0.0170305994573071 | 0.0195066007333216 occ= 0
MO #17  energy= 0.0183420201471512 | 0.014881498208093  | 0.0218026979694907 occ= 0
MO #18  energy= 0.0380810448601009 | 0.0375717324141058 | 0.0385904041067446 occ= 0
MO #19  energy= 0.0708489661147604 | 0.0673758735861608 | 0.0743219733496017 occ= 0
MO #20  energy= 0.0708489661147649 | 0.067375873586164  | 0.0743219733496039 occ= 0
MO #21  energy= 0.0789644872898777 | 0.078797882793314  | 0.0791310917864405 occ= 0
MO #22  energy= 0.0790195340467653 | 0.0786782825270863 | 0.0793607751964969 occ= 0
MO #23  energy= 0.0806580940509214 | 0.079604335662065  | 0.0817119209500564 occ= 0
MO #24  energy= 0.0935654423936133 | 0.0908307562822536 | 0.0963001047423554 occ= 0
MO #25  energy= 0.0935654423936195 | 0.0908307562822595 | 0.0963001047423622 occ= 0
MO #26  energy= 0.139925849429158  | 0.130096713333266  | 0.14975514557799   occ= 0
MO #27  energy= 0.150186862094769  | 0.1465178089874    | 0.153856076868143  occ= 0
MO #28  energy= 0.218937341657844  | 0.212731762226999  | 0.22514280120518   occ= 0
MO #29  energy= 0.21893734165785   | 0.212731762227009  | 0.225142801205187  occ= 0
MO #30  energy= 0.240635125652037  | 0.237788993659997  | 0.243481257644081  occ= 0
MO #31  energy= 0.242166787021377  | 0.238060020475985  | 0.246273736609428  occ= 0
MO #32  energy= 0.242869356606961  | 0.236201891657035  | 0.249536750782224  occ= 0
MO #33  energy= 0.293820062201195  | 0.290204557243069  | 0.297435548102109  occ= 0
MO #34  energy= 0.293820062201196  | 0.290204557243067  | 0.297435548102111  occ= 0
MO #35  energy= 0.29397334258404   | 0.288669241571551  | 0.299277606540561  occ= 0
MO #36  energy= 0.305296992888303  | 0.29129947713143   | 0.319294503605104  occ= 0
MO #37  energy= 0.305296992888308  | 0.291299477131425  | 0.319294503605117  occ= 0
MO #38  energy= 0.509362802972798  | 0.495877426146232  | 0.522848495065447  occ= 0
MO #39  energy= 0.754666996650413  | 0.751853081345093  | 0.757480911955732  occ= 0
MO #40  energy= 0.755511695493732  | 0.750962813191714  | 0.76006057234493   occ= 0
MO #41  energy= 0.773110842070357  | 0.748998111045264  | 0.797223568395013  occ= 0
MO #42  energy= 0.827727965093445  | 0.812877377884933  | 0.842578756001705  occ= 0
MO #43  energy= 0.838364228076344  | 0.814593888441847  | 0.862134359833961  occ= 0
MO #44  energy= 0.83836422807637   | 0.814593888441873  | 0.862134359833986  occ= 0
MO #45  energy= 0.926624741663874  | 0.915601600170643  | 0.937647902530203  occ= 0
MO #46  energy= 0.987472085300379  | 0.979004229162281  | 0.995939915444154  occ= 0
MO #47  energy= 0.987472085300382  | 0.979004229162283  | 0.995939915444155  occ= 0
MO #48  energy= 1.01015081489813   | 0.99630076655038   | 1.02400086324746   occ= 0
MO #49  energy= 1.01015081489813   | 0.99630076655038   | 1.02400086324746   occ= 0
MO #50  energy= 1.03329194708242   | 1.01438989395204   | 1.0521940002128    occ= 0
MO #51  energy= 1.04687560712519   | 1.00462423681048   | 1.0891269869178    occ= 0
MO #52  energy= 1.04970425892735   | 1.03012541309252   | 1.0692832528964    occ= 0
MO #53  energy= 1.1251875492216    | 1.11473993430469   | 1.13563516118513   occ= 0
MO #54  energy= 1.12518754922161   | 1.11473993430469   | 1.13563516118513   occ= 0
MO #55  energy= 1.2405919698216    | 1.22828530571854   | 1.25289863392466   occ= 0
MO #56  energy= 1.25118093350326   | 1.21645275308338   | 1.28590910780701   occ= 0
MO #57  energy= 1.84003367783947   | 1.79471722345795   | 1.88535002227295   occ= 0
MO #58  energy= 1.84003367783947   | 1.79471722345796   | 1.88535002227295   occ= 0
MO #59  energy= 1.89224304005585   | 1.85858834363535   | 1.92589773801199   occ= 0
MO #60  energy= 1.89224304005585   | 1.85858834363535   | 1.925897738012     occ= 0
MO #61  energy= 1.95352494073603   | 1.93409519105175   | 1.97295472685996   occ= 0
MO #62  energy= 2.0144102485469    | 1.98867930576345   | 2.04014118609442   occ= 0
MO #63  energy= 2.15973892439718   | 2.15781216752512   | 2.1616656812738    occ= 0
MO #64  energy= 2.15973892439719   | 2.15781216752512   | 2.1616656812738    occ= 0
MO #65  energy= 2.28309344232923   | 2.27033563480992   | 2.29585125880855   occ= 0
MO #66  energy= 2.28495165420918   | 2.2805249317852    | 2.28937837629571   occ= 0
MO #67  energy= 2.28523177998433   | 2.28143649092771   | 2.28902706904096   occ= 0
MO #68  energy= 2.43086436800297   | 2.42571413461661   | 2.43601459738246   occ= 0
MO #69  energy= 2.43086436800298   | 2.42571413461662   | 2.43601459738247   occ= 0
MO #70  energy= 2.44016930839233   | 2.43595714222221   | 2.44438147411376   occ= 0
MO #71  energy= 2.44044859654727   | 2.43724257237186   | 2.44365462072267   occ= 0
MO #72  energy= 2.70572945073153   | 2.68304533057357   | 2.72841359382373   occ= 0
MO #73  energy= 2.9786061784495    | 2.94405442618743   | 3.01315792338237   occ= 0
MO #74  energy= 2.9786061784495    | 2.94405442618743   | 3.01315792338238   occ= 0
MO #75  energy= 3.08232399936363   | 3.04595471605392   | 3.11869328336833   occ= 0
MO #76  energy= 3.47032444138519   | 3.40936826249242   | 3.53128062022515   occ= 0
MO #77  energy= 3.4703244413852    | 3.40936826249242   | 3.53128062022515   occ= 0
MO #78  energy= 3.50673254636375   | 3.44245824817426   | 3.57100684455325   occ= 0
MO #79  energy= 3.51317627664351   | 3.44834703547854   | 3.57800553383787   occ= 0
MO #80  energy= 3.51600544608712   | 3.42307075713361   | 3.60894013555902   occ= 0
MO #81  energy= 3.69396379128906   | 3.63469082384101   | 3.75323676007152   occ= 0
MO #82  energy= 3.69396379128907   | 3.63469082384101   | 3.75323676007152   occ= 0
MO #83  energy= 3.84064663520095   | 3.82581821019244   | 3.85547506263979   occ= 0
MO #84  energy= 3.84064663520097   | 3.82581821019245   | 3.8554750626398    occ= 0
MO #85  energy= 4.17309849070178   | 4.1475917862248    | 4.19860519443389   occ= 0
MO #86  energy= 4.1731282055961    | 4.14762215183197   | 4.19863425936024   occ= 0
MO #87  energy= 4.20449389190637   | 4.17664613731714   | 4.23234164664789   occ= 0
MO #88  energy= 4.20449389190638   | 4.17664613731714   | 4.23234164664789   occ= 0
MO #89  energy= 4.34212788654795   | 4.31706342095895   | 4.36719234912477   occ= 0
MO #90  energy= 4.43514987344582   | 4.39951774475016   | 4.47078200917467   occ= 0
MO #91  energy= 4.43566783527042   | 4.41032688419734   | 4.46100878634351   occ= 0
MO #92  energy= 4.72042496467866   | 4.68960009331778   | 4.75124983805394   occ= 0
MO #93  energy= 4.72042496467866   | 4.68960009331779   | 4.75124983805396   occ= 0
MO #94  energy= 4.72872601596769   | 4.69947036904727   | 4.7579816628881    occ= 0
MO #95  energy= 4.75554254956862   | 4.66179627559938   | 4.84928882956421   occ= 0
MO #96  energy= 4.82774286311708   | 4.77901301468222   | 4.87647271123281   occ= 0
MO #97  energy= 5.11917091532283   | 5.09898826492853   | 5.1393535667162    occ= 0
MO #98  energy= 5.55777386532387   | 5.48042288138216   | 5.63512484138382   occ= 0
MO #99  energy= 5.55777386532389   | 5.48042288138219   | 5.63512484138384   occ= 0
MO #100 energy= 6.16711762232171   | 6.10116147043915   | 6.23307380986992   occ= 0
MO #101 energy= 6.5841497720394    | 6.58140207042298   | 6.58689747365632   occ= 0
MO #102 energy= 6.58414977203941   | 6.58140207042299   | 6.58689747365633   occ= 0
MO #103 energy= 6.68556077888961   | 6.68320121998026   | 6.6879203377897    occ= 0
MO #104 energy= 6.68569661375182   | 6.68347575881986   | 6.68791746868379   occ= 0
MO #105 energy= 6.86960360976845   | 6.86410871168959   | 6.87509850784421   occ= 0
MO #106 energy= 6.86960360976845   | 6.86410871168961   | 6.87509850784423   occ= 0
MO #107 energy= 6.94842894049301   | 6.93661877885858   | 6.96023910217179   occ= 0
MO #108 energy= 7.16923647193417   | 7.1645695598554    | 7.17390338401581   occ= 0
MO #109 energy= 7.16932110176205   | 7.16471732225337   | 7.17392488127073   occ= 0
MO #110 energy= 7.362237665458     | 7.35516168887181   | 7.36931364147995   occ= 0
MO #111 energy= 7.36223766545802   | 7.35516168887182   | 7.36931364147996   occ= 0
MO #112 energy= 7.73425578343272   | 7.71911569294072   | 7.749395878363     occ= 0
MO #113 energy= 8.87897736372826   | 8.82571051718399   | 8.93224420974689   occ= 0
MO #114 energy= 8.87897736372826   | 8.82571051718398   | 8.93224420974688   occ= 0
MO #115 energy= 9.78263866705851   | 9.71032723265731   | 9.85495010330739   occ= 0
MO #116 energy= 11.1087122577416   | 11.0304263085553   | 11.1869982064149   occ= 0
MO #117 energy= 11.1087122577417   | 11.0304263085553   | 11.186998206415    occ= 0
MO #118 energy= 11.1157644521909   | 11.0239944679112   | 11.2075344364706   occ= 0
MO #119 energy= 11.1215560628998   | 10.9915605681131   | 11.2515515572573   occ= 0
MO #120 energy= 11.2436111777632   | 11.1306721162788   | 11.3565502396935   occ= 0
MO #121 energy= 11.2436111777632   | 11.1306721162788   | 11.3565502396935   occ= 0
MO #122 energy= 11.6064897375656   | 11.5094134227481   | 11.7035660531064   occ= 0
MO #123 energy= 13.1998938650731   | 13.1884448332245   | 13.2113428969705   occ= 0
MO #124 energy= 14.6829264508316   | 14.6151030568294   | 14.7507498451462   occ= 0
MO #125 energy= 14.6829264508316   | 14.6151030568294   | 14.7507498451462   occ= 0
MO #126 energy= 14.6922817055174   | 14.639984820536    | 14.7445785822844   occ= 0
MO #127 energy= 14.6923453759649   | 14.6401861972277   | 14.744504554702    occ= 0
MO #128 energy= 14.7420330288663   | 14.6603514161785   | 14.8237146409791   occ= 0
MO #129 energy= 14.7514099740386   | 14.6880228101493   | 14.8147971379279   occ= 0
MO #130 energy= 14.8944248171504   | 14.8219255977189   | 14.9669240387539   occ= 0
MO #131 energy= 14.8944248171504   | 14.8219255977189   | 14.9669240387539   occ= 0
MO #132 energy= 15.0051815617326   | 14.9423629117725   | 15.0680002126771   occ= 0
MO #133 energy= 15.3264118451874   | 15.2971508114612   | 15.3556728791615   occ= 0
 ** Mulliken pop on meta-lowdin orthogonal AOs  **
 ** Mulliken pop  **
pop of  0Fe 3s        1.99992
pop of  0Fe 4s        0.37335
pop of  0Fe 5s        0.01093
pop of  0Fe 6s        0.00179
pop of  0Fe 7s        0.00331
pop of  0Fe 8s        0.00110
pop of  0Fe 3px       1.99958
pop of  0Fe 3py       1.99958
pop of  0Fe 3pz       1.99869
pop of  0Fe 4px       0.03702
pop of  0Fe 4py       0.03702
pop of  0Fe 4pz       0.00308
pop of  0Fe 5px       0.00281
pop of  0Fe 5py       0.00281
pop of  0Fe 5pz       0.00122
pop of  0Fe 6px       0.00009
pop of  0Fe 6py       0.00009
pop of  0Fe 6pz       0.00039
pop of  0Fe 7px       0.00409
pop of  0Fe 7py       0.00409
pop of  0Fe 7pz       0.00241
pop of  0Fe 8px       0.00049
pop of  0Fe 8py       0.00049
pop of  0Fe 8pz       0.00026
pop of  0Fe 3dxy      1.99918
pop of  0Fe 3dyz      1.06811
pop of  0Fe 3dz^2     1.07677
pop of  0Fe 3dxz      1.06811
pop of  0Fe 3dx2-y2    0.99883
pop of  0Fe 4dxy      0.00011
pop of  0Fe 4dyz      0.00232
pop of  0Fe 4dz^2     0.00007
pop of  0Fe 4dxz      0.00232
pop of  0Fe 4dx2-y2    0.00051
pop of  0Fe 5dxy      0.00001
pop of  0Fe 5dyz      0.00017
pop of  0Fe 5dz^2     0.00082
pop of  0Fe 5dxz      0.00017
pop of  0Fe 5dx2-y2    0.00007
pop of  0Fe 6dxy      0.00000
pop of  0Fe 6dyz      0.00146
pop of  0Fe 6dz^2     0.00071
pop of  0Fe 6dxz      0.00146
pop of  0Fe 6dx2-y2    0.00020
pop of  0Fe 7dxy      0.00000
pop of  0Fe 7dyz      0.00017
pop of  0Fe 7dz^2     0.00040
pop of  0Fe 7dxz      0.00017
pop of  0Fe 7dx2-y2    0.00001
pop of  0Fe 4fy^3     0.00002
pop of  0Fe 4fxyz     0.00001
pop of  0Fe 4fyz^2    0.00002
pop of  0Fe 4fz^3     0.00004
pop of  0Fe 4fxz^2    0.00002
pop of  0Fe 4fzx^2    0.00000
pop of  0Fe 4fx^3     0.00002
pop of  0Fe 5fy^3     0.00004
pop of  0Fe 5fxyz     0.00019
pop of  0Fe 5fyz^2    0.00035
pop of  0Fe 5fz^3     0.00033
pop of  0Fe 5fxz^2    0.00035
pop of  0Fe 5fzx^2    0.00010
pop of  0Fe 5fx^3     0.00004
pop of  0Fe 6fy^3     0.00001
pop of  0Fe 6fxyz     0.00046
pop of  0Fe 6fyz^2    0.00013
pop of  0Fe 6fz^3     0.00003
pop of  0Fe 6fxz^2    0.00013
pop of  0Fe 6fzx^2    0.00017
pop of  0Fe 6fx^3     0.00001
pop of  0Fe 5g-4      0.00000
pop of  0Fe 5g-3      0.00000
pop of  0Fe 5g-2      0.00000
pop of  0Fe 5g-1      0.00001
pop of  0Fe 5g 0      0.00001
pop of  0Fe 5g 1      0.00001
pop of  0Fe 5g 2      0.00000
pop of  0Fe 5g 3      0.00000
pop of  0Fe 5g 4      0.00000
pop of  0Fe 6g-4      0.00000
pop of  0Fe 6g-3      0.00000
pop of  0Fe 6g-2      0.00000
pop of  0Fe 6g-1      0.00006
pop of  0Fe 6g 0      0.00015
pop of  0Fe 6g 1      0.00006
pop of  0Fe 6g 2      0.00000
pop of  0Fe 6g 3      0.00000
pop of  0Fe 6g 4      0.00001
pop of  1O 2s        1.89954
pop of  1O 3s        0.00058
pop of  1O 4s        0.00091
pop of  1O 5s        0.00311
pop of  1O 2px       1.84159
pop of  1O 2py       1.84159
pop of  1O 2pz       1.60701
pop of  1O 3px       0.00003
pop of  1O 3py       0.00003
pop of  1O 3pz       0.00027
pop of  1O 4px       0.01510
pop of  1O 4py       0.01510
pop of  1O 4pz       0.00525
pop of  1O 5px       0.01140
pop of  1O 5py       0.01140
pop of  1O 5pz       0.00216
pop of  1O 3dxy      0.00001
pop of  1O 3dyz      0.00031
pop of  1O 3dz^2     0.00045
pop of  1O 3dxz      0.00031
pop of  1O 3dx2-y2    0.00000
pop of  1O 4dxy      0.00001
pop of  1O 4dyz      0.00332
pop of  1O 4dz^2     0.00299
pop of  1O 4dxz      0.00332
pop of  1O 4dx2-y2    0.00000
pop of  1O 5dxy      0.00001
pop of  1O 5dyz      0.01032
pop of  1O 5dz^2     0.00182
pop of  1O 5dxz      0.01032
pop of  1O 5dx2-y2    0.00007
pop of  1O 4fy^3     0.00000
pop of  1O 4fxyz     0.00000
pop of  1O 4fyz^2    0.00007
pop of  1O 4fz^3     0.00011
pop of  1O 4fxz^2    0.00007
pop of  1O 4fzx^2    0.00000
pop of  1O 4fx^3     0.00000
pop of  1O 5fy^3     0.00000
pop of  1O 5fxyz     0.00001
pop of  1O 5fyz^2    0.00090
pop of  1O 5fz^3     0.00001
pop of  1O 5fxz^2    0.00090
pop of  1O 5fzx^2    0.00003
pop of  1O 5fx^3     0.00000
 ** Mulliken atomic charges  **
charge of  0Fe =      1.29042
charge of  1O =     -1.29042

******** <class 'pyscf.mcscf.mc1step.CASSCF'> flags ********
CAS (8e+4e, 9o), ncore = 5, nvir = 119
max_cycle_macro = 50
max_cycle_micro = 4
conv_tol = 1e-07
conv_tol_grad = None
orbital rotation max_stepsize = 0.02
augmented hessian ah_max_cycle = 30
augmented hessian ah_conv_tol = 1e-12
augmented hessian ah_linear dependence = 1e-14
augmented hessian ah_level shift = 0
augmented hessian ah_start_tol = 2.5
augmented hessian ah_start_cycle = 3
augmented hessian ah_grad_trust_region = 3
kf_trust_region = 3
kf_interval = 4
ci_response_space = 4
ci_grad_trust_region = 3
with_dep4 0
natorb = False
canonicalization = True
chkfile = ./scratch/137402/tmpEC8mnB
max_memory 4000 MB (current use 529 MB)
internal_rotation = False

******** SHCI flags ********
executable             = /home/bamu3429/softwares/dice/Dice
mpiprefix              = mpirun -np 28
scratchDirectory       = ./scratch/137402
integralFile           = ./FCIDUMP
configFile             = ./input.dat
outputFile             = ./output.dat
maxIter                = 6
sweep_iter             = []
sweep_epsilon          = []
nPTiter                = 0
Stochastic             = True
fullrestart            = False
restart                = False
num_thrds              = 12
memory                 = None

CASCI E = -138.681946836222  S^2 = 6.0000000
Set conv_tol_grad to 0.000316228
macro iter 1 (21 JK  4 micro), CASSCF E = -138.733796729285  dE = -0.051849893  S^2 = 6.0000000
               |grad[o]|=0.0818  |grad[c]|= None  |ddm|=0.422
macro iter 2 (12 JK  4 micro), CASSCF E = -138.755876553887  dE = -0.022079825  S^2 = 6.0000000
               |grad[o]|=0.158  |grad[c]|= None  |ddm|=0.315
macro iter 3 (10 JK  4 micro), CASSCF E = -138.756114470761  dE = -0.00023791687  S^2 = 6.0000000
               |grad[o]|=0.0189  |grad[c]|= None  |ddm|=0.0282
macro iter 4 (7 JK  3 micro), CASSCF E = -138.756114916441  dE = -4.4567929e-07  S^2 = 6.0000000
               |grad[o]|=0.000646  |grad[c]|= None  |ddm|=0.00118
macro iter 5 (3 JK  1 micro), CASSCF E = -138.756114922291  dE = -5.8508363e-09  S^2 = 6.0000000
               |grad[o]|=6.75e-05  |grad[c]|= None  |ddm|=    0
1-step CASSCF converged in 5 macro (53 JK 16 micro) steps
CASSCF canonicalization
CASSCF energy = -138.756114922291


--------------------------------------------------
                 ICMPSPT CALCULATION              
--------------------------------------------------

Perturbation type: MRLCC
With fully internally contracted scheme
With third order correction

Preparing necessary RDMs
......production of RDMs took      66.56 sec
Reading binary 4RDM from DICE
......reading the RDM took         26.94 sec

(GOOD) Trace 4RDM:  11880.0 =   12*   11*   10*    9
(GOOD) Trace 3RDM:   1320.0 =   12*   11*   10
(GOOD) Trace 2RDM:    132.0 =   12*   11
(GOOD) Trace 1RDM:     12.0 =   12

Producing the integrals
......production of INT took     159.26 sec

Energy_core =  -131.437780773
Energy      =  -138.756114922

WARNING: Have to use natural orbitals from CAASCF
         offdiagonal elements: 0.839669751908

Basic ingredients written to int/
......savings of INGREDIENTS took      40.76 sec

Second-order:
perturber CCVV --        -0.109903355
perturber CCAV --        -0.040229667
perturber ACVV --        -0.248116402
perturber CCAA --        -0.018237024
perturber AAVV --        -0.290189418
perturber CAAV --        -0.139875194
perturber AAAV --        -0.063592835
perturber AAAC --        -0.001759398
Total:                   -0.911903292

Third-order:             -0.002008919

Total PT       --        -0.913912210

