 &FCI NORB=6 ,NELEC=10 ,MS2=0,
  ORBSYM=1,1,1,1,1,1,
  ISYM=1,
 &END
  1.014257347048e+00    1  1  1  1
  4.223612333969e-08    2  1  1  1
  3.865378040871e-02    2  1  2  1
  9.369499095031e-01    2  2  1  1
 -2.206254124195e-08    2  2  2  1
  1.014257389690e+00    2  2  2  2
 -1.265746256656e-06    3  1  1  1
 -5.516227156531e-05    3  1  2  1
  1.351956710757e-04    3  1  2  2
  3.879237935230e-02    3  1  3  1
  9.786863406490e-05    3  2  1  1
 -6.826164394763e-05    3  2  2  1
  2.537357768081e-07    3  2  2  2
  8.304820896895e-04    3  2  3  1
  3.847430591398e-02    3  2  3  2
  9.366792350279e-01    3  3  1  1
 -1.630242831121e-03    3  3  2  1
  9.373036404225e-01    3  3  2  2
  3.411768269874e-07    3  3  3  1
  9.081794396473e-08    3  3  3  2
  1.014254379286e+00    3  3  3  3
 -6.696007408020e-06    4  1  1  1
 -2.568015600684e-05    4  1  2  1
 -3.085809245979e-05    4  1  2  2
  7.143840895511e-04    4  1  3  1
  1.907267230905e-02    4  1  3  2
  1.403236527688e-04    4  1  3  3
  4.232139907704e-02    4  1  4  1
  5.253782142281e-05    4  2  1  1
  1.822262830926e-05    4  2  2  1
  9.286995267926e-07    4  2  2  2
 -1.489222127658e-02    4  2  3  1
 -9.256325684793e-04    4  2  3  2
 -1.646020313321e-04    4  2  3  3
 -8.518252159128e-04    4  2  4  1
  3.385678308902e-02    4  2  4  2
 -1.413708361806e-03    4  3  1  1
 -4.192027082038e-03    4  3  2  1
  1.839720691818e-03    4  3  2  2
 -6.932743538319e-05    4  3  3  1
  8.237327256109e-05    4  3  3  2
 -3.539170622364e-06    4  3  3  3
  8.144435140685e-05    4  3  4  1
  7.075905418682e-05    4  3  4  2
  2.239567258929e-02    4  3  4  3
  9.295957478516e-01    4  4  1  1
  1.707045045275e-03    4  4  2  1
  9.465583289209e-01    4  4  2  2
 -1.628689241639e-04    4  4  3  1
 -1.414506651529e-04    4  4  3  2
  9.694692299120e-01    4  4  3  3
  1.545133861486e-06    4  4  4  1
  3.044366999896e-07    4  4  4  2
 -3.388998903325e-06    4  4  4  3
  1.014265683210e+00    4  4  4  4
 -2.101586328625e-06    5  1  1  1
 -1.488146425510e-05    5  1  2  1
  4.391781942180e-05    5  1  2  2
  1.280172547130e-03    5  1  3  1
  5.782805391271e-03    5  1  3  2
 -1.870133647783e-06    5  1  3  3
  6.383218906113e-03    5  1  4  1
 -1.158955529550e-03    5  1  4  2
  2.411820927281e-05    5  1  4  3
 -3.945542167529e-05    5  1  4  4
  2.322306565492e-02    5  1  5  1
  2.939682225092e-05    5  2  1  1
 -2.437292345450e-05    5  2  2  1
 -9.399774850945e-07    5  2  2  2
  1.345832522812e-02    5  2  3  1
 -2.214465490345e-03    5  2  3  2
  5.698141713590e-05    5  2  3  3
 -2.606497286716e-03    5  2  4  1
 -1.137396595210e-02    5  2  4  2
 -7.717821482804e-05    5  2  4  3
 -8.572612354756e-05    5  2  4  4
  3.271528154219e-05    5  2  5  1
  3.201106854533e-02    5  2  5  2
 -2.556400802008e-03    5  3  1  1
 -1.924736154825e-02    5  3  2  1
  4.442291133305e-03    5  3  2  2
  4.386182393057e-06    5  3  3  1
 -2.780139556096e-05    5  3  3  2
 -1.719804454568e-05    5  3  3  3
 -8.831716736794e-05    5  3  4  1
  4.906273096379e-05    5  3  4  2
  4.991158066423e-03    5  3  4  3
 -1.885009041159e-03    5  3  4  4
 -1.389040527939e-05    5  3  5  1
 -1.980910740820e-05    5  3  5  2
  4.334146079395e-02    5  3  5  3
 -1.277624703195e-02    5  4  1  1
  3.766618355070e-03    5  4  2  1
  2.274630314479e-02    5  4  2  2
  6.385775765895e-05    5  4  3  1
  2.818606142327e-05    5  4  3  2
 -9.969647000610e-03    5  4  3  3
  2.257812356524e-05    5  4  4  1
  4.333456977209e-05    5  4  4  2
  9.351656310926e-04    5  4  4  3
  9.443974634248e-06    5  4  4  4
  5.206984814463e-05    5  4  5  1
 -5.655006907158e-05    5  4  5  2
  2.155709719862e-04    5  4  5  3
  4.442158732570e-02    5  4  5  4
  9.678069486304e-01    5  5  1  1
 -6.543443158693e-05    5  5  2  1
  9.502252725551e-01    5  5  2  2
  2.696540283599e-05    5  5  3  1
  3.937117871616e-05    5  5  3  2
  9.275928781880e-01    5  5  3  3
 -1.084985045399e-04    5  5  4  1
  1.122063767969e-04    5  5  4  2
 -4.216917735716e-04    5  5  4  3
  9.254132853117e-01    5  5  4  4
 -1.856917726026e-06    5  5  5  1
 -3.265867473267e-07    5  5  5  2
  3.844351246763e-06    5  5  5  3
 -7.146931875746e-06    5  5  5  4
  1.014249777627e+00    5  5  5  5
  2.715881373422e-05    6  1  1  1
 -9.516551447350e-06    6  1  2  1
  1.124454652244e-05    6  1  2  2
  2.680769959208e-04    6  1  3  1
  1.250963713595e-03    6  1  3  2
  1.956027981504e-05    6  1  3  3
  1.381909423888e-03    6  1  4  1
 -2.447412584936e-04    6  1  4  2
  5.589974657237e-06    6  1  4  3
  4.185652260452e-06    6  1  4  4
  4.321574419753e-04    6  1  5  1
  1.648714132870e-06    6  1  5  2
  1.362066620040e-06    6  1  5  3
 -4.197996836373e-06    6  1  5  4
  1.829499303274e-05    6  1  5  5
  2.811370536037e-02    6  1  6  1
 -6.701181580757e-06    6  2  1  1
 -3.685063922912e-06    6  2  2  1
  1.855867576323e-05    6  2  2  2
  1.250414458850e-03    6  2  3  1
 -2.109067880283e-04    6  2  3  2
  5.766971919206e-06    6  2  3  3
 -2.459178137185e-04    6  2  4  1
 -1.055660635641e-03    6  2  4  2
 -5.323038481217e-06    6  2  4  3
 -1.079352889131e-06    6  2  4  4
  1.937286902597e-06    6  2  5  1
  1.003216928734e-03    6  2  5  2
  3.549149348412e-06    6  2  5  3
  9.724283916789e-06    6  2  5  4
 -1.365678852809e-06    6  2  5  5
  3.305824371967e-06    6  2  6  1
  2.811532429692e-02    6  2  6  2
  2.301186302317e-04    6  3  1  1
  1.250202051072e-03    6  3  2  1
 -2.486362099086e-04    6  3  2  2
  4.631546244774e-06    6  3  3  1
  2.983830483700e-06    6  3  3  2
 -2.266625295762e-04    6  3  3  3
  5.668496666785e-06    6  3  4  1
 -5.463079250029e-06    6  3  4  2
 -3.209569047580e-04    6  3  4  3
 -9.027255992504e-05    6  3  4  4
  1.479231115231e-06    6  3  5  1
  3.965234303873e-06    6  3  5  2
 -1.423151483819e-03    6  3  5  3
  5.283040510185e-05    6  3  5  4
  1.314864104419e-04    6  3  5  5
 -4.753374109380e-07    6  3  6  1
 -1.123505246586e-06    6  3  6  2
  2.811703107957e-02    6  3  6  3
  1.403152852548e-03    6  4  1  1
 -2.449798238963e-04    6  4  2  1
 -1.033268004569e-03    6  4  2  2
  5.587297119747e-06    6  4  3  1
 -5.020882501058e-06    6  4  3  2
 -2.985488969420e-04    6  4  3  3
 -1.061699896818e-05    6  4  4  1
 -3.973617205769e-06    6  4  4  2
 -5.069854262637e-05    6  4  4  3
 -8.842709581107e-04    6  4  4  4
 -3.953645575359e-06    6  4  5  1
  9.553737873936e-06    6  4  5  2
  5.226508699185e-05    6  4  5  3
 -1.154885469933e-03    6  4  5  4
  9.297119060777e-04    6  4  5  5
 -1.213827939141e-06    6  4  6  1
  3.987976847832e-07    6  4  6  2
 -7.590203242797e-07    6  4  6  3
  2.811788932087e-02    6  4  6  4
  4.493012318176e-04    6  5  1  1
  2.881862808300e-06    6  5  2  1
  1.020643775409e-03    6  5  2  2
  1.499832502914e-06    6  5  3  1
  3.868238799335e-06    6  5  3  2
 -1.406987445454e-03    6  5  3  3
 -3.954729028524e-06    6  5  4  1
  9.573936210474e-06    6  5  4  2
  5.231176901648e-05    6  5  4  3
 -1.138380611029e-03    6  5  4  4
  2.743154186402e-06    6  5  5  1
 -4.234398253958e-06    6  5  5  2
  1.688931937187e-04    6  5  5  3
  9.083499639306e-04    6  5  5  4
  1.165273594066e-03    6  5  5  5
 -3.965262364840e-07    6  5  6  1
 -1.782532587558e-07    6  5  6  2
 -3.635420234737e-06    6  5  6  3
  7.265421490745e-07    6  5  6  4
  2.811334782064e-02    6  5  6  5
  6.720037340732e-01    6  6  1  1
  5.873168333246e-06    6  6  2  1
  6.720066087024e-01    6  6  2  2
 -8.422620955094e-07    6  6  3  1
 -1.995314699031e-06    6  6  3  2
  6.720096362553e-01    6  6  3  3
 -2.157345543140e-06    6  6  4  1
  7.080512351972e-07    6  6  4  2
 -1.344450788971e-06    6  6  4  3
  6.720111473757e-01    6  6  4  4
 -7.054451527018e-07    6  6  5  1
 -3.170285875906e-07    6  6  5  2
 -6.454861367467e-06    6  6  5  3
  1.290206472619e-06    6  6  5  4
  6.720030936640e-01    6  6  5  5
  4.664352485807e-06    6  6  6  1
  8.802469653554e-07    6  6  6  2
 -1.183470980006e-05    6  6  6  3
  6.726571431031e-06    6  6  6  4
  5.123798675881e-06    6  6  6  5
  5.587748828217e-01    6  6  6  6
 -9.215242885624e+00    1  1  0  0
 -1.138419721180e-05    2  1  0  0
 -9.215248228163e+00    2  2  0  0
  1.651985454997e-06    3  1  0  0
  3.868044609535e-06    3  2  0  0
 -9.215253033110e+00    3  3  0  0
  4.170479966053e-06    4  1  0  0
 -1.376256645346e-06    4  2  0  0
  2.637668693889e-06    4  3  0  0
 -9.215255891901e+00    4  4  0  0
  1.357295257576e-06    5  1  0  0
  6.125235219021e-07    5  2  0  0
  1.248138480521e-05    5  3  0  0
 -2.714851491843e-06    5  4  0  0
 -9.215241840968e+00    5  5  0  0
 -1.406561380531e-04    6  1  0  0
 -2.654072829789e-05    6  2  0  0
  3.566381108380e-04    6  3  0  0
 -2.041597161976e-04    6  4  0  0
 -1.570305629638e-04    6  5  0  0
 -6.151588766717e+00    6  6  0  0
   -146.236147151845   0  0  0  0
