#INFO: **** input file is /projects/bamu3429/BENCHMARK/fresh_atoms/MRPT/vtz/atoms/Cu_1/mrpt.py ****
import json
from pyscf import gto,scf,mcscf, fci, lo, ci, cc
from pyscf.scf import ROHF, UHF,ROKS
import numpy as np
import pandas as pd

# THIS IS WERE IT STARTS ====================================

df=json.load(open("../../../trail.json"))

spins={'Sc':1, 'Ti':2, 'V':3, 'Cr':6, 'Mn':5, 'Fe':4, 'Cu':1}

nd={'Sc':(1,0), 'Ti':(2,0), 'V':(3,0), 'Cr':(5,0), 'Mn':(5,0), 'Fe':(5,1), 'Cu':(5,5)}

cas={'Sc':3, 'Ti':4, 'V':5, 'Cr':6, 'Mn':7, 'Fe':8, 'Cu':11}

datacsv={}
for nm in ['atom','charge','method','basis','pseudopotential','hf',
           'totalenergy','totalenergy-stocherr','totalenergy-syserr']:
  datacsv[nm]=[]

basis='vtz'
el='Cu'
charge=1

mol=gto.Mole()
mol.ecp={}
mol.basis={}
mol.ecp[el]=gto.basis.parse_ecp(df[el]['ecp'])
mol.basis[el]=gto.basis.parse(df[el][basis])
mol.charge=charge
if el == 'Cr' or el == 'Cu':
  mol.spin=spins[el]-charge
else:
  mol.spin=spins[el]+charge
mol.build(atom="%s 0. 0. 0."%el,verbose=4)

m=ROHF(mol)
m.level_shift=1000.0
dm=m.from_chk("../../../../HF/atoms/"+el+basis+str(charge)+".chk")
hf=m.kernel(dm)
m.analyze()

from pyscf.shciscf import shci
mc = shci.SHCISCF(m, 6, cas[el]-charge)
#mc.fcisolver.conv_tol = 1e-14
mc.fcisolver.mpiprefix="mpirun -np 28"
mc.fcisolver.num_thrds=12
mc.verbose = 4
cas=mc.kernel()[0]
 
from pyscf.icmpspt import icmpspt
pt=icmpspt.icmpspt(mc,rdmM=500, PTM=1000,\
                          pttype="MRLCC",\
                          third_order=True,\
                          fully_ic=True,\
                          do_dm4=True)

datacsv['atom'].append(el)
datacsv['charge'].append(charge)
datacsv['method'].append('MRPT')
datacsv['basis'].append(basis)
datacsv['pseudopotential'].append('trail')
datacsv['hf'].append(hf)
datacsv['totalenergy'].append(cas+pt)
datacsv['totalenergy-stocherr'].append(0.0)
datacsv['totalenergy-syserr'].append(0.0)
pd.DataFrame(datacsv).to_csv(el+".csv",index=False)

#INFO: ******************** input file end ********************


System: ('Linux', 'bnode0304.rc.int.colorado.edu', '3.10.0-514.41.1.el7.x86_64', '#1 SMP Wed Jan 17 10:26:16 EST 2018', 'x86_64', 'x86_64')  Threads 28
Python 2.7.11 (default, Mar 22 2016, 01:42:54) 
[GCC Intel(R) C++ gcc 4.8 mode]
numpy 1.11.1  scipy 0.17.1
Date: Thu Mar 29 15:07:41 2018
PySCF version 1.4
PySCF path  /projects/bamu3429/softwares/pyscf_uptodate/pyscf
GIT ORIG_HEAD e2292e6edec2b0e0024c21b81de03db1d7bd4121
GIT HEAD      ref: refs/heads/master
GIT master branch  f3591ef22170896a4cdc2aadaa6f5da388ffcadb

[INPUT] VERBOSE 4
[INPUT] num atoms = 1
[INPUT] num electrons = 18
[INPUT] charge = 1
[INPUT] spin (= nelec alpha-beta = 2S) = 0
[INPUT] symmetry False subgroup None
[INPUT]  1 Cu     0.000000000000   0.000000000000   0.000000000000 AA    0.000000000000   0.000000000000   0.000000000000 Bohr
[INPUT] ---------------- BASIS SET ---------------- 
[INPUT] l, kappa, [nprim/nctr], expnt,             c_1 c_2 ...
[INPUT] Cu
[INPUT] 0    0    [12   /1   ]  56.69692001       0.003858
                                20.1703448        -1.511163
                                16.89311889       5.262467
                                14.81117613       -4.140408
                                6.02025146        0.066973
                                2.45829434        0.59039
                                1.29773244        0.435
                                0.73258474        0.171005
                                0.2960966         0.014654
                                0.13350445        -0.001059
                                0.05975279        0.002343
                                0.0277617         7.2e-05
[INPUT] 0    0    [12   /1   ]  56.69692001       -0.000329
                                20.1703448        0.271255
                                16.89311889       -0.991333
                                14.81117613       0.80309
                                6.02025146        -0.009798
                                2.45829434        -0.162788
                                1.29773244        -0.157463
                                0.73258474        -0.146178
                                0.2960966         0.068557
                                0.13350445        0.45286
                                0.05975279        0.4989
                                0.0277617         0.13834
[INPUT] 0    0    [12   /1   ]  56.69692001       -0.002467
                                20.1703448        1.109338
                                16.89311889       -4.134563
                                14.81117613       3.441198
                                6.02025146        -0.295299
                                2.45829434        -0.948212
                                1.29773244        0.104998
                                0.73258474        0.272398
                                0.2960966         0.781279
                                0.13350445        0.403482
                                0.05975279        -0.504819
                                0.0277617         -0.537516
[INPUT] 0    0    [12   /1   ]  56.69692001       0.007169
                                20.1703448        -2.290439
                                16.89311889       8.576039
                                14.81117613       -7.236243
                                6.02025146        1.069217
                                2.45829434        1.904655
                                1.29773244        -1.704423
                                0.73258474        -0.959586
                                0.2960966         0.398011
                                0.13350445        1.19757
                                0.05975279        -0.332252
                                0.0277617         -0.640028
[INPUT] 0    0    [1    /1   ]  0.0277617            1
[INPUT] 0    0    [1    /1   ]  0.01289834           1
[INPUT] 1    0    [12   /1   ]  84.11621248       0.00021
                                41.67010486       -0.003354
                                20.84027636       0.054507
                                13.1175259        -0.185677
                                7.96834211        0.1136
                                4.08681185        0.286879
                                2.29416473        0.386568
                                1.21038981        0.304256
                                0.60503887        0.104511
                                0.23373223        0.008916
                                0.0905483         -0.000333
                                0.03498335        0.000208
[INPUT] 1    0    [12   /1   ]  84.11621248       4e-06
                                41.67010486       0.000359
                                20.84027636       -0.009409
                                13.1175259        0.03575
                                7.96834211        -0.025333
                                4.08681185        -0.064167
                                2.29416473        -0.086609
                                1.21038981        -0.086359
                                0.60503887        0.027529
                                0.23373223        0.324015
                                0.0905483         0.541358
                                0.03498335        0.260105
[INPUT] 1    0    [12   /1   ]  84.11621248       -0.000267
                                41.67010486       -6.4e-05
                                20.84027636       0.047925
                                13.1175259        -0.277144
                                7.96834211        0.331958
                                4.08681185        0.774366
                                2.29416473        -0.100864
                                1.21038981        -0.807332
                                0.60503887        -0.321021
                                0.23373223        0.668842
                                0.0905483         0.367628
                                0.03498335        -0.000935
[INPUT] 1    0    [12   /1   ]  84.11621248       5.7e-05
                                41.67010486       -0.001547
                                20.84027636       0.089243
                                13.1175259        -0.63532
                                7.96834211        1.278388
                                4.08681185        0.622329
                                2.29416473        -1.509876
                                1.21038981        -0.580496
                                0.60503887        1.497693
                                0.23373223        -0.085087
                                0.0905483         -0.662473
                                0.03498335        0.018623
[INPUT] 1    0    [1    /1   ]  0.03498335           1
[INPUT] 1    0    [1    /1   ]  0.01351582           1
[INPUT] 2    0    [10   /1   ]  85.06963135       0.000306
                                37.22826442       -0.00619
                                15.61164981       0.135912
                                9.50636668        0.057336
                                5.30208049        0.240495
                                2.49612499        0.317037
                                1.13949453        0.29791
                                0.51100337        0.208077
                                0.230497          0.090388
                                0.11275594        0.026692
[INPUT] 2    0    [10   /1   ]  85.06963135       -6.7e-05
                                37.22826442       0.005894
                                15.61164981       -0.160149
                                9.50636668        -0.06449
                                5.30208049        -0.378253
                                2.49612499        -0.223915
                                1.13949453        0.192556
                                0.51100337        0.40631
                                0.230497          0.288029
                                0.11275594        0.137167
[INPUT] 2    0    [10   /1   ]  85.06963135       0.000676
                                37.22826442       0.002685
                                15.61164981       -0.164508
                                9.50636668        -0.124255
                                5.30208049        -0.491432
                                2.49612499        0.308336
                                1.13949453        0.656459
                                0.51100337        -0.049831
                                0.230497          -0.426374
                                0.11275594        -0.340335
[INPUT] 2    0    [1    /1   ]  0.11275594           1
[INPUT] 2    0    [1    /1   ]  0.05515864           1
[INPUT] 3    0    [1    /1   ]  5.302569             1
[INPUT] 3    0    [1    /1   ]  1.403579             1
[INPUT] 3    0    [1    /1   ]  0.37152444           1
[INPUT] 4    0    [1    /1   ]  4.659861             1
[INPUT] 4    0    [1    /1   ]  1.23345551           1
nuclear repulsion = 0
number of shells = 22
number of NR pGTOs = 399
number of NR cGTOs = 88
basis = {'Cu': [[0, [56.69692001, 0.003858], [20.1703448, -1.511163], [16.89311889, 5.262467], [14.81117613, -4.140408], [6.02025146, 0.066973], [2.45829434, 0.59039], [1.29773244, 0.435], [0.73258474, 0.171005], [0.2960966, 0.014654], [0.13350445, -0.001059], [0.05975279, 0.002343], [0.0277617, 7.2e-05]], [0, [56.69692001, -0.000329], [20.1703448, 0.271255], [16.89311889, -0.991333], [14.81117613, 0.80309], [6.02025146, -0.009798], [2.45829434, -0.162788], [1.29773244, -0.157463], [0.73258474, -0.146178], [0.2960966, 0.068557], [0.13350445, 0.45286], [0.05975279, 0.4989], [0.0277617, 0.13834]], [0, [56.69692001, -0.002467], [20.1703448, 1.109338], [16.89311889, -4.134563], [14.81117613, 3.441198], [6.02025146, -0.295299], [2.45829434, -0.948212], [1.29773244, 0.104998], [0.73258474, 0.272398], [0.2960966, 0.781279], [0.13350445, 0.403482], [0.05975279, -0.504819], [0.0277617, -0.537516]], [0, [56.69692001, 0.007169], [20.1703448, -2.290439], [16.89311889, 8.576039], [14.81117613, -7.236243], [6.02025146, 1.069217], [2.45829434, 1.904655], [1.29773244, -1.704423], [0.73258474, -0.959586], [0.2960966, 0.398011], [0.13350445, 1.19757], [0.05975279, -0.332252], [0.0277617, -0.640028]], [0, [0.0277617, 1.0]], [0, [0.01289834, 1.0]], [1, [84.11621248, 0.00021], [41.67010486, -0.003354], [20.84027636, 0.054507], [13.1175259, -0.185677], [7.96834211, 0.1136], [4.08681185, 0.286879], [2.29416473, 0.386568], [1.21038981, 0.304256], [0.60503887, 0.104511], [0.23373223, 0.008916], [0.0905483, -0.000333], [0.03498335, 0.000208]], [1, [84.11621248, 4e-06], [41.67010486, 0.000359], [20.84027636, -0.009409], [13.1175259, 0.03575], [7.96834211, -0.025333], [4.08681185, -0.064167], [2.29416473, -0.086609], [1.21038981, -0.086359], [0.60503887, 0.027529], [0.23373223, 0.324015], [0.0905483, 0.541358], [0.03498335, 0.260105]], [1, [84.11621248, -0.000267], [41.67010486, -6.4e-05], [20.84027636, 0.047925], [13.1175259, -0.277144], [7.96834211, 0.331958], [4.08681185, 0.774366], [2.29416473, -0.100864], [1.21038981, -0.807332], [0.60503887, -0.321021], [0.23373223, 0.668842], [0.0905483, 0.367628], [0.03498335, -0.000935]], [1, [84.11621248, 5.7e-05], [41.67010486, -0.001547], [20.84027636, 0.089243], [13.1175259, -0.63532], [7.96834211, 1.278388], [4.08681185, 0.622329], [2.29416473, -1.509876], [1.21038981, -0.580496], [0.60503887, 1.497693], [0.23373223, -0.085087], [0.0905483, -0.662473], [0.03498335, 0.018623]], [1, [0.03498335, 1.0]], [1, [0.01351582, 1.0]], [2, [85.06963135, 0.000306], [37.22826442, -0.00619], [15.61164981, 0.135912], [9.50636668, 0.057336], [5.30208049, 0.240495], [2.49612499, 0.317037], [1.13949453, 0.29791], [0.51100337, 0.208077], [0.230497, 0.090388], [0.11275594, 0.026692]], [2, [85.06963135, -6.7e-05], [37.22826442, 0.005894], [15.61164981, -0.160149], [9.50636668, -0.06449], [5.30208049, -0.378253], [2.49612499, -0.223915], [1.13949453, 0.192556], [0.51100337, 0.40631], [0.230497, 0.288029], [0.11275594, 0.137167]], [2, [85.06963135, 0.000676], [37.22826442, 0.002685], [15.61164981, -0.164508], [9.50636668, -0.124255], [5.30208049, -0.491432], [2.49612499, 0.308336], [1.13949453, 0.656459], [0.51100337, -0.049831], [0.230497, -0.426374], [0.11275594, -0.340335]], [2, [0.11275594, 1.0]], [2, [0.05515864, 1.0]], [3, [5.302569, 1.0]], [3, [1.403579, 1.0]], [3, [0.37152444, 1.0]], [4, [4.659861, 1.0]], [4, [1.23345551, 1.0]]]}
ecp = {'Cu': [10, [[-1, [[], [[19.87662576, 19.0]], [[18.71397328, 13322.8315411], [8.24597653, -143.81933419], [17.99726398, -6835.89401414], [19.50653533, -6413.73731394]], [[9.35936389, 377.6558895]]]], [0, [[], [], [[12.04327682, 217421.85846016], [11.98352277, -215987.47192743], [9.67744501, 1647.53099822], [17.5806873, -5124.79596488], [17.5092588, -963.5691239], [19.80724162, 3071.81011765]], []]], [1, [[], [], [[15.48559732, 189560.54470794], [15.42430413, -181115.65838446], [17.81980355, -1937.67548293], [17.69074392, -2335.92086442], [17.98867265, -8634.52846732], [19.82460345, 4504.58524733]], []]], [2, [[], [], [[10.91448054, -5224.34215851], [14.69969344, -3653.65459704], [11.52370333, 8159.25189768], [19.81153965, -2763.94279097], [18.0197982, 6020.80732635], [14.46480052, -2560.14492979]], []]]]]}
CPU time:         3.54


******** <class 'pyscf.scf.rohf.ROHF'> flags ********
method = ROHF
initial guess = minao
damping factor = 0
level shift factor = 1000.0
DIIS = <class 'pyscf.scf.diis.CDIIS'>
DIIS start cycle = 1
DIIS space = 8
SCF tol = 1e-09
SCF gradient tol = None
max. SCF cycles = 50
direct_scf = True
direct_scf_tol = 1e-13
chkfile to save SCF result = /projects/bamu3429/BENCHMARK/fresh_atoms/MRPT/vtz/atoms/Cu_1/tmpGtWJL6
max_memory 4000 MB (current use 115 MB)
num. doubly occ = 9  num. singly occ = 0
Set gradient conv threshold to 3.16228e-05
init E= -196.321951867461
  HOMO = -0.802100499260125  LUMO = 999.762161655077
cycle= 1 E= -196.321951867461  delta_E= -1.42e-13  |g|= 1.3e-05  |ddm|= 9.27e-08
  HOMO = -0.802100498477527  LUMO = -0.237838344871593
Extra cycle  E= -196.32195186748  delta_E= -1.9e-11  |g|= 2.04e-06  |ddm|= 1.35e-05
converged SCF energy = -196.32195186748
**** MO energy ****
                Roothaan           | alpha              | beta
MO #1   energy= -5.54666250297819  | -5.54666250297821  | -5.54666250297821  occ= 2
MO #2   energy= -3.81963071428518  | -3.81963071428517  | -3.81963071428517  occ= 2
MO #3   energy= -3.81963071253759  | -3.8196307125376   | -3.8196307125376   occ= 2
MO #4   energy= -3.8196307027693   | -3.81963070276929  | -3.81963070276929  occ= 2
MO #5   energy= -0.802100513390899 | -0.802100513390904 | -0.802100513390902 occ= 2
MO #6   energy= -0.802100510580964 | -0.802100510580966 | -0.802100510580965 occ= 2
MO #7   energy= -0.802100503465052 | -0.802100503465053 | -0.802100503465052 occ= 2
MO #8   energy= -0.802100503318017 | -0.802100503318018 | -0.802100503318018 occ= 2
MO #9   energy= -0.802100498477527 | -0.802100498477527 | -0.802100498477527 occ= 2
MO #10  energy= -0.237838344871593 | -0.237838344871591 | -0.237838344871591 occ= 0
MO #11  energy= -0.123655734231446 | -0.123655734231446 | -0.123655734231446 occ= 0
MO #12  energy= -0.123655733610433 | -0.123655733610434 | -0.123655733610434 occ= 0
MO #13  energy= -0.123655730091081 | -0.123655730091081 | -0.123655730091081 occ= 0
MO #14  energy= -0.079958858221706 | -0.0799588582217033 | -0.0799588582217033 occ= 0
MO #15  energy= -0.0494853328520809 | -0.0494853328520817 | -0.0494853328520817 occ= 0
MO #16  energy= -0.0494853326382598 | -0.049485332638263 | -0.049485332638263 occ= 0
MO #17  energy= -0.0494853314424408 | -0.0494853314424427 | -0.0494853314424427 occ= 0
MO #18  energy= -0.00776337793492953 | -0.00776337793492751 | -0.00776337793492751 occ= 0
MO #19  energy= -0.00776337791344119 | -0.00776337791344135 | -0.00776337791344135 occ= 0
MO #20  energy= -0.00776337463947914 | -0.00776337463947726 | -0.00776337463947725 occ= 0
MO #21  energy= -0.00776337406602439 | -0.00776337406602463 | -0.00776337406602462 occ= 0
MO #22  energy= -0.00776337281303346 | -0.00776337281303438 | -0.00776337281303438 occ= 0
MO #23  energy= 0.0630326675438008 | 0.0630326675438031 | 0.0630326675438013 occ= 0
MO #24  energy= 0.119522361403385  | 0.119522361403384  | 0.119522361403384  occ= 0
MO #25  energy= 0.119522362049578  | 0.119522362049578  | 0.119522362049578  occ= 0
MO #26  energy= 0.119522365616411  | 0.119522365616411  | 0.119522365616411  occ= 0
MO #27  energy= 0.274427377332611  | 0.274427377332609  | 0.274427377332609  occ= 0
MO #28  energy= 0.274427377368305  | 0.274427377368303  | 0.274427377368303  occ= 0
MO #29  energy= 0.274427384364439  | 0.274427384364438  | 0.274427384364438  occ= 0
MO #30  energy= 0.274427385503991  | 0.274427385503999  | 0.274427385503999  occ= 0
MO #31  energy= 0.274427389048287  | 0.274427389048288  | 0.274427389048288  occ= 0
MO #32  energy= 0.833319188120437  | 0.833319188120434  | 0.833319188120429  occ= 0
MO #33  energy= 1.10822175379833   | 1.10822175379832   | 1.10822175379832   occ= 0
MO #34  energy= 1.10822175380374   | 1.10822175380374   | 1.10822175380374   occ= 0
MO #35  energy= 1.10822176972984   | 1.10822176972984   | 1.10822176972984   occ= 0
MO #36  energy= 1.10822177008642   | 1.10822177008642   | 1.10822177008642   occ= 0
MO #37  energy= 1.10822177742406   | 1.10822177742406   | 1.10822177742406   occ= 0
MO #38  energy= 1.10822178064223   | 1.10822178064223   | 1.10822178064223   occ= 0
MO #39  energy= 1.10822178217407   | 1.10822178217407   | 1.10822178217407   occ= 0
MO #40  energy= 1.55966937599      | 1.55966937599      | 1.55966937599      occ= 0
MO #41  energy= 1.55966937601235   | 1.55966937601235   | 1.55966937601235   occ= 0
MO #42  energy= 1.55966938590564   | 1.55966938590564   | 1.55966938590564   occ= 0
MO #43  energy= 1.55966938722932   | 1.55966938722933   | 1.55966938722933   occ= 0
MO #44  energy= 1.55966939521459   | 1.55966939521459   | 1.55966939521459   occ= 0
MO #45  energy= 2.41963082610646   | 2.41963082610647   | 2.41963082610647   occ= 0
MO #46  energy= 2.4196308289285    | 2.4196308289285    | 2.4196308289285    occ= 0
MO #47  energy= 2.41963084453296   | 2.41963084453296   | 2.41963084453296   occ= 0
MO #48  energy= 4.49312572688967   | 4.49312572688967   | 4.49312572688967   occ= 0
MO #49  energy= 4.49312572689377   | 4.49312572689377   | 4.49312572689377   occ= 0
MO #50  energy= 4.49312574028286   | 4.49312574028287   | 4.49312574028287   occ= 0
MO #51  energy= 4.49312574053681   | 4.49312574053682   | 4.49312574053682   occ= 0
MO #52  energy= 4.49312574794583   | 4.49312574794584   | 4.49312574794584   occ= 0
MO #53  energy= 4.49312575064633   | 4.49312575064633   | 4.49312575064633   occ= 0
MO #54  energy= 4.49312575251704   | 4.49312575251705   | 4.49312575251705   occ= 0
MO #55  energy= 5.43447286202446   | 5.43447286202445   | 5.43447286202445   occ= 0
MO #56  energy= 5.43447286202471   | 5.43447286202472   | 5.43447286202472   occ= 0
MO #57  energy= 5.43447287972178   | 5.43447287972178   | 5.43447287972178   occ= 0
MO #58  energy= 5.43447287974993   | 5.43447287974993   | 5.43447287974993   occ= 0
MO #59  energy= 5.4344728918331    | 5.4344728918331    | 5.4344728918331    occ= 0
MO #60  energy= 5.43447289256678   | 5.43447289256677   | 5.43447289256677   occ= 0
MO #61  energy= 5.43447289814576   | 5.43447289814576   | 5.43447289814576   occ= 0
MO #62  energy= 5.43447290231198   | 5.43447290231198   | 5.43447290231198   occ= 0
MO #63  energy= 5.4344729033424    | 5.4344729033424    | 5.4344729033424    occ= 0
MO #64  energy= 5.9699303206058    | 5.96993032060579   | 5.96993032060579   occ= 0
MO #65  energy= 6.6881355926185    | 6.6881355926185    | 6.6881355926185    occ= 0
MO #66  energy= 6.68813559334217   | 6.68813559334217   | 6.68813559334217   occ= 0
MO #67  energy= 6.68813559486036   | 6.68813559486036   | 6.68813559486036   occ= 0
MO #68  energy= 6.68813559491235   | 6.68813559491234   | 6.68813559491234   occ= 0
MO #69  energy= 6.6881355969633    | 6.6881355969633    | 6.6881355969633    occ= 0
MO #70  energy= 10.360472081171    | 10.360472081171    | 10.360472081171    occ= 0
MO #71  energy= 10.3604720820711   | 10.360472082071    | 10.360472082071    occ= 0
MO #72  energy= 10.3604720873147   | 10.3604720873147   | 10.3604720873147   occ= 0
MO #73  energy= 15.0266738199242   | 15.0266738199242   | 15.0266738199242   occ= 0
MO #74  energy= 15.0266738201021   | 15.0266738201021   | 15.0266738201021   occ= 0
MO #75  energy= 15.0266738216417   | 15.0266738216417   | 15.0266738216417   occ= 0
MO #76  energy= 15.0266738239388   | 15.0266738239388   | 15.0266738239388   occ= 0
MO #77  energy= 15.026673824169    | 15.026673824169    | 15.026673824169    occ= 0
MO #78  energy= 15.0266738317613   | 15.0266738317613   | 15.0266738317613   occ= 0
MO #79  energy= 15.0266738317639   | 15.0266738317639   | 15.0266738317639   occ= 0
MO #80  energy= 20.0155745694453   | 20.0155745694453   | 20.0155745694453   occ= 0
MO #81  energy= 20.0155745697343   | 20.0155745697343   | 20.0155745697343   occ= 0
MO #82  energy= 20.0155745703443   | 20.0155745703443   | 20.0155745703443   occ= 0
MO #83  energy= 20.0155745715406   | 20.0155745715406   | 20.0155745715406   occ= 0
MO #84  energy= 20.0155745716182   | 20.0155745716182   | 20.0155745716182   occ= 0
MO #85  energy= 20.0155745737101   | 20.0155745737101   | 20.0155745737101   occ= 0
MO #86  energy= 20.0155745737124   | 20.0155745737124   | 20.0155745737124   occ= 0
MO #87  energy= 20.0155745759954   | 20.0155745759954   | 20.0155745759954   occ= 0
MO #88  energy= 20.0155745759955   | 20.0155745759955   | 20.0155745759955   occ= 0
 ** Mulliken pop on meta-lowdin orthogonal AOs  **
 ** Mulliken pop  **
pop of  0Cu 3s        1.99995
pop of  0Cu 4s        0.00000
pop of  0Cu 5s        0.00004
pop of  0Cu 6s        0.00001
pop of  0Cu 7s        0.00000
pop of  0Cu 8s        0.00000
pop of  0Cu 3px       1.99994
pop of  0Cu 3py       1.99994
pop of  0Cu 3pz       1.99994
pop of  0Cu 4px       0.00004
pop of  0Cu 4py       0.00004
pop of  0Cu 4pz       0.00004
pop of  0Cu 5px       0.00002
pop of  0Cu 5py       0.00002
pop of  0Cu 5pz       0.00002
pop of  0Cu 6px       0.00001
pop of  0Cu 6py       0.00001
pop of  0Cu 6pz       0.00001
pop of  0Cu 7px       0.00000
pop of  0Cu 7py       0.00000
pop of  0Cu 7pz       0.00000
pop of  0Cu 8px       0.00000
pop of  0Cu 8py       0.00000
pop of  0Cu 8pz       0.00000
pop of  0Cu 3dxy      1.99909
pop of  0Cu 3dyz      1.99909
pop of  0Cu 3dz^2     1.99909
pop of  0Cu 3dxz      1.99909
pop of  0Cu 3dx2-y2    1.99909
pop of  0Cu 4dxy      0.00086
pop of  0Cu 4dyz      0.00086
pop of  0Cu 4dz^2     0.00086
pop of  0Cu 4dxz      0.00086
pop of  0Cu 4dx2-y2    0.00086
pop of  0Cu 5dxy      0.00001
pop of  0Cu 5dyz      0.00001
pop of  0Cu 5dz^2     0.00001
pop of  0Cu 5dxz      0.00001
pop of  0Cu 5dx2-y2    0.00001
pop of  0Cu 6dxy      0.00003
pop of  0Cu 6dyz      0.00003
pop of  0Cu 6dz^2     0.00003
pop of  0Cu 6dxz      0.00003
pop of  0Cu 6dx2-y2    0.00003
pop of  0Cu 7dxy      0.00000
pop of  0Cu 7dyz      0.00000
pop of  0Cu 7dz^2     0.00000
pop of  0Cu 7dxz      0.00000
pop of  0Cu 7dx2-y2    0.00000
pop of  0Cu 4fy^3     0.00000
pop of  0Cu 4fxyz     0.00000
pop of  0Cu 4fyz^2    0.00000
pop of  0Cu 4fz^3     0.00000
pop of  0Cu 4fxz^2    0.00000
pop of  0Cu 4fzx^2    0.00000
pop of  0Cu 4fx^3     0.00000
pop of  0Cu 5fy^3     0.00000
pop of  0Cu 5fxyz     0.00000
pop of  0Cu 5fyz^2    0.00000
pop of  0Cu 5fz^3     0.00000
pop of  0Cu 5fxz^2    0.00000
pop of  0Cu 5fzx^2    0.00000
pop of  0Cu 5fx^3     0.00000
pop of  0Cu 6fy^3     0.00000
pop of  0Cu 6fxyz     0.00000
pop of  0Cu 6fyz^2    0.00000
pop of  0Cu 6fz^3     0.00000
pop of  0Cu 6fxz^2    0.00000
pop of  0Cu 6fzx^2    0.00000
pop of  0Cu 6fx^3     0.00000
pop of  0Cu 5g-4      0.00000
pop of  0Cu 5g-3      0.00000
pop of  0Cu 5g-2      0.00000
pop of  0Cu 5g-1      0.00000
pop of  0Cu 5g 0      0.00000
pop of  0Cu 5g 1      0.00000
pop of  0Cu 5g 2      0.00000
pop of  0Cu 5g 3      0.00000
pop of  0Cu 5g 4      0.00000
pop of  0Cu 6g-4      0.00000
pop of  0Cu 6g-3      0.00000
pop of  0Cu 6g-2      0.00000
pop of  0Cu 6g-1      0.00000
pop of  0Cu 6g 0      0.00000
pop of  0Cu 6g 1      0.00000
pop of  0Cu 6g 2      0.00000
pop of  0Cu 6g 3      0.00000
pop of  0Cu 6g 4      0.00000
 ** Mulliken atomic charges  **
charge of  0Cu =      1.00000

******** <class 'pyscf.mcscf.mc1step.CASSCF'> flags ********
CAS (5e+5e, 6o), ncore = 4, nvir = 78
max_cycle_macro = 50
max_cycle_micro = 4
conv_tol = 1e-07
conv_tol_grad = None
orbital rotation max_stepsize = 0.02
augmented hessian ah_max_cycle = 30
augmented hessian ah_conv_tol = 1e-12
augmented hessian ah_linear dependence = 1e-14
augmented hessian ah_level shift = 0
augmented hessian ah_start_tol = 2.5
augmented hessian ah_start_cycle = 3
augmented hessian ah_grad_trust_region = 3
kf_trust_region = 3
kf_interval = 4
ci_response_space = 4
ci_grad_trust_region = 3
with_dep4 0
natorb = False
canonicalization = True
chkfile = ./scratch/132026/tmpEho6Hd
max_memory 4000 MB (current use 219 MB)
internal_rotation = False

******** SHCI flags ********
executable             = /home/bamu3429/softwares/dice/Dice
mpiprefix              = mpirun -np 28
scratchDirectory       = ./scratch/132026
integralFile           = ./FCIDUMP
configFile             = ./input.dat
outputFile             = ./output.dat
maxIter                = 6
sweep_iter             = []
sweep_epsilon          = []
nPTiter                = 0
Stochastic             = True
fullrestart            = False
restart                = False
num_thrds              = 12
memory                 = None

CASCI E = -196.322135155928  S^2 = 0.0000000
Set conv_tol_grad to 0.000316228
macro iter 1 (21 JK  4 micro), CASSCF E = -196.323493671417  dE = -0.0013585155  S^2 = 0.0000000
               |grad[o]|=0.000779  |grad[c]|= None  |ddm|=0.00168
macro iter 2 (21 JK  4 micro), CASSCF E = -196.324505514339  dE = -0.0010118429  S^2 = 0.0000000
               |grad[o]|=0.00227  |grad[c]|= None  |ddm|=0.00107
macro iter 3 (6 JK  2 micro), CASSCF E = -196.324507274508  dE = -1.7601683e-06  S^2 = 0.0000000
               |grad[o]|=0.000555  |grad[c]|= None  |ddm|=0.000121
macro iter 4 (1 JK  1 micro), CASSCF E = -196.324507274508  dE = 0  S^2 = 0.0000000
               |grad[o]|=2.12e-05  |grad[c]|= None  |ddm|=    0
1-step CASSCF converged in 4 macro (49 JK 11 micro) steps
CASSCF canonicalization
CASSCF energy = -196.324507274508


--------------------------------------------------
                 ICMPSPT CALCULATION              
--------------------------------------------------

Perturbation type: MRLCC
With fully internally contracted scheme
With third order correction

Preparing necessary RDMs
......production of RDMs took       0.86 sec
Reading binary 4RDM from DICE
......reading the RDM took          1.08 sec

(GOOD) Trace 4RDM:   5040.0 =   10*    9*    8*    7
(GOOD) Trace 3RDM:    720.0 =   10*    9*    8
(GOOD) Trace 2RDM:     90.0 =   10*    9
(GOOD) Trace 1RDM:     10.0 =   10

Producing the integrals
......production of INT took      89.95 sec

Energy_core =  -146.236147152
Energy      =  -196.324507275

WARNING: Have to use natural orbitals from CAASCF
         offdiagonal elements: 1.52382424269

Basic ingredients written to int/
......savings of INGREDIENTS took      17.67 sec

Second-order:
perturber CCVV --        -0.097744173
perturber CCAV --        -0.010799422
perturber ACVV --        -0.297331050
perturber CCAA --        -0.000389198
perturber AAVV --        -0.418948001
perturber CAAV --        -0.032885800
perturber AAAV --        -0.007090468
perturber AAAC --        -0.000000000
Total:                   -0.865188111

Third-order:             -0.000508756

Total PT       --        -0.865696868

