 &FCI NORB=9 ,NELEC=10 ,MS2=4,
  ORBSYM=1,1,1,1,1,1,1,1,1,
  ISYM=1,
 &END
  6.328526431172e-01    1  1  1  1
  3.992865526417e-11    2  1  1  1
  2.938214897471e-02    2  1  2  1
  5.874018156886e-01    2  2  1  1
  1.295964427498e-10    2  2  2  1
  6.783778851795e-01    2  2  2  2
 -5.220317052584e-10    3  1  1  1
 -7.081511607356e-10    3  1  2  2
  2.909501767533e-02    3  1  3  1
 -5.972478873838e-11    3  2  2  1
  1.927893299901e-12    3  2  3  1
  2.985170850843e-02    3  2  3  2
  5.818691180197e-01    3  3  1  1
  7.830240351414e-11    3  3  2  1
  6.024292390412e-01    3  3  2  2
 -7.324513681685e-10    3  3  3  1
  6.492523257412e-01    3  3  3  3
 -3.901597158385e-03    4  1  1  1
 -1.468065466228e-10    4  1  2  1
 -1.750659522535e-02    4  1  2  2
  1.863101466576e-10    4  1  3  1
 -1.265050644757e-02    4  1  3  3
  2.002007323013e-02    4  1  4  1
 -7.093262704376e-10    4  2  1  1
 -2.237956723025e-03    4  2  2  1
 -1.426779544938e-09    4  2  2  2
 -8.561891438752e-11    4  2  3  2
 -1.013056457683e-09    4  2  3  3
  3.563465647105e-10    4  2  4  1
  2.321821006564e-03    4  2  4  2
 -2.952743015906e-10    4  3  1  1
 -7.291584902994e-10    4  3  2  2
 -4.696639526048e-03    4  3  3  1
 -7.769427434773e-11    4  3  3  2
 -7.451938523815e-10    4  3  3  3
  3.546035215003e-10    4  3  4  1
  4.730842292173e-03    4  3  4  3
  3.853438308882e-01    4  4  1  1
 -1.875045874059e-10    4  4  2  1
  3.121598966752e-01    4  4  2  2
  8.632959520177e-10    4  4  3  1
  3.390710202590e-01    4  4  3  3
  6.487410060010e-02    4  4  4  1
  1.483913137916e-09    4  4  4  2
  1.410634083023e-09    4  4  4  3
  6.402092967627e-01    4  4  4  4
 -1.032246490279e-10    5  1  2  1
  7.053732181895e-12    5  1  3  1
 -8.892008435441e-05    5  1  3  2
  6.429224028835e-11    5  1  4  2
  4.412061561079e-11    5  1  4  3
  8.459823761447e-03    5  1  5  1
 -1.163165765423e-09    5  2  1  1
 -2.424312760086e-09    5  2  2  2
 -1.535924538198e-03    5  2  3  1
  4.656755844723e-11    5  2  3  2
 -1.740623000388e-09    5  2  3  3
  5.868878150905e-10    5  2  4  1
  1.760679570062e-03    5  2  4  3
  2.337091258321e-09    5  2  4  4
  6.486487737119e-12    5  2  5  1
  3.090177385129e-03    5  2  5  2
  1.073815703841e-10    5  3  1  1
 -1.701277721745e-03    5  3  2  1
  2.475969199582e-10    5  3  2  2
 -1.748834153666e-10    5  3  3  2
  2.239110243517e-10    5  3  3  3
 -1.108735451525e-10    5  3  4  1
 -8.841756761290e-04    5  3  4  2
 -4.570680505170e-10    5  3  4  4
  7.699418340081e-11    5  3  5  1
  4.350115549588e-03    5  3  5  3
  1.156598710089e-10    5  4  2  1
 -5.683408579291e-11    5  4  3  1
  1.645462071574e-03    5  4  3  2
  1.544571746141e-10    5  4  4  2
  8.981518618442e-11    5  4  4  3
  5.654658081040e-03    5  4  5  1
  1.222207933373e-10    5  4  5  2
  1.520482171561e-11    5  4  5  3
  1.873394278739e-02    5  4  5  4
  4.054043888439e-01    5  5  1  1
 -3.581066538967e-10    5  5  2  1
  3.264402871370e-01    5  5  2  2
  7.707929331941e-10    5  5  3  1
  3.509517247372e-01    5  5  3  3
  6.532878752754e-02    5  5  4  1
  1.541478276981e-09    5  5  4  2
  1.661243968663e-09    5  5  4  3
  6.680736340876e-01    5  5  4  4
  3.135465199620e-09    5  5  5  2
 -3.665800012786e-10    5  5  5  3
  7.800703501109e-01    5  5  5  5
  1.635374439504e-02    6  1  1  1
 -1.616691294249e-10    6  1  2  1
  1.717532110546e-03    6  1  2  2
 -1.187162848252e-11    6  1  3  1
  5.955364906654e-03    6  1  3  3
  9.759791997480e-03    6  1  4  1
  3.337782011627e-10    6  1  4  2
  2.036633155955e-10    6  1  4  3
  5.564470163643e-02    6  1  4  4
  4.411596755346e-10    6  1  5  2
 -9.634358013348e-11    6  1  5  3
  6.915532599715e-02    6  1  5  5
  1.716119640232e-02    6  1  6  1
 -9.195976356103e-10    6  2  1  1
 -2.692654849107e-03    6  2  2  1
 -1.755980216567e-09    6  2  2  2
 -3.888885493216e-10    6  2  3  2
 -1.304119242100e-09    6  2  3  3
  3.753080344739e-10    6  2  4  1
 -4.337848652373e-04    6  2  4  2
  1.464977816432e-09    6  2  4  4
  4.491049063107e-11    6  2  5  1
  1.442095465995e-03    6  2  5  3
 -8.446444893453e-12    6  2  5  4
  1.870730587671e-09    6  2  5  5
  3.396388260054e-10    6  2  6  1
  2.834148294492e-03    6  2  6  2
 -1.766177030988e-09    6  3  1  1
 -3.577318307007e-09    6  3  2  2
 -7.385513266699e-04    6  3  3  1
 -1.294040212240e-10    6  3  3  2
 -3.666910918936e-09    6  3  3  3
  1.326225607487e-09    6  3  4  1
 -5.917145901171e-04    6  3  4  3
  5.224717245355e-09    6  3  4  4
  4.345447945857e-11    6  3  5  1
 -5.707823563082e-04    6  3  5  2
  3.468820510272e-12    6  3  5  4
  5.706583688608e-09    6  3  5  5
  1.135972030797e-09    6  3  6  1
  2.519790975322e-03    6  3  6  3
 -4.056402509869e-02    6  4  1  1
  1.494205898064e-10    6  4  2  1
 -2.674628293534e-02    6  4  2  2
 -1.622361470113e-10    6  4  3  1
 -3.019438476992e-02    6  4  3  3
 -1.195401448050e-02    6  4  4  1
 -2.467891578404e-10    6  4  4  2
 -8.985948709657e-11    6  4  4  3
 -1.058937138652e-01    6  4  4  4
 -5.104855137725e-10    6  4  5  2
  1.014952279054e-12    6  4  5  3
 -1.248332486162e-01    6  4  5  5
 -1.515806541803e-02    6  4  6  1
 -4.076432857578e-10    6  4  6  2
 -1.246855557512e-09    6  4  6  3
  4.521037386407e-02    6  4  6  4
 -1.105079751655e-10    6  5  2  1
 -7.466148861582e-11    6  5  3  1
  2.002932872156e-03    6  5  3  2
 -1.768822752522e-10    6  5  4  2
  1.298857719937e-10    6  5  4  3
  5.864394402192e-03    6  5  5  1
  1.551298782947e-10    6  5  5  2
  5.419905959165e-10    6  5  5  3
  1.740971167414e-03    6  5  5  4
  1.878845693026e-10    6  5  6  2
 -1.863566682733e-11    6  5  6  3
  1.712986653283e-02    6  5  6  5
  3.317760036925e-01    6  6  1  1
 -2.616025562116e-10    6  6  2  1
  2.796995928291e-01    6  6  2  2
  9.450954015254e-10    6  6  3  1
  2.915864463475e-01    6  6  3  3
  3.743878620711e-02    6  6  4  1
  9.501949453290e-10    6  6  4  2
  6.358500280396e-10    6  6  4  3
  4.919328945157e-01    6  6  4  4
  1.726347748656e-09    6  6  5  2
 -1.183780914998e-10    6  6  5  3
  5.439745542043e-01    6  6  5  5
  4.819482357836e-02    6  6  6  1
  1.422746946829e-09    6  6  6  2
  4.262775796619e-09    6  6  6  3
 -7.672722639339e-02    6  6  6  4
  4.525243249451e-01    6  6  6  6
 -5.792559886002e-10    7  1  1  1
 -3.455895416048e-03    7  1  2  1
 -4.995512091140e-11    7  1  2  2
  3.901708068968e-11    7  1  3  2
 -1.691150387199e-10    7  1  3  3
 -3.843535968834e-10    7  1  4  1
  2.298652087325e-03    7  1  4  2
 -2.265030897103e-09    7  1  4  4
  1.040294203071e-11    7  1  5  1
 -1.860021805424e-03    7  1  5  3
 -5.237149916812e-11    7  1  5  4
 -2.684996152110e-09    7  1  5  5
 -3.480622202524e-10    7  1  6  1
 -4.665923969225e-04    7  1  6  2
  6.150337460160e-10    7  1  6  4
 -2.459488399360e-10    7  1  6  5
 -1.755542759209e-09    7  1  6  6
  7.989408762499e-03    7  1  7  1
 -3.989193775340e-02    7  2  1  1
 -5.756466178309e-11    7  2  2  1
 -8.228422343145e-02    7  2  2  2
  4.471358477290e-10    7  2  3  1
 -5.951847360208e-02    7  2  3  3
  1.981569557962e-02    7  2  4  1
  7.135805940722e-10    7  2  4  2
  4.622934747600e-10    7  2  4  3
  7.724874284841e-02    7  2  4  4
  1.291389393651e-09    7  2  5  2
 -1.199903385420e-10    7  2  5  3
  9.164691776527e-02    7  2  5  5
  1.790358709258e-02    7  2  6  1
  9.250285530710e-10    7  2  6  2
  2.321431942250e-09    7  2  6  3
 -1.894104670897e-02    7  2  6  4
  6.388223337273e-02    7  2  6  6
 -7.352638955420e-10    7  2  7  1
  4.662311901866e-02    7  2  7  2
  1.104367308438e-10    7  3  2  1
  1.017984943580e-10    7  3  3  1
 -5.657033297069e-03    7  3  3  2
  6.438937105855e-11    7  3  4  2
  3.623152450861e-12    7  3  4  3
  2.037709101388e-03    7  3  5  1
 -2.700745167943e-11    7  3  5  2
  7.762862470986e-12    7  3  5  3
  2.217710970197e-03    7  3  5  4
  1.461544978196e-10    7  3  6  2
  6.521835377809e-11    7  3  6  3
  2.584570885558e-03    7  3  6  5
  4.430315513564e-11    7  3  7  1
  4.911479589356e-03    7  3  7  3
  1.894216005593e-09    7  4  1  1
  4.072713211574e-03    7  4  2  1
  1.436031937921e-09    7  4  2  2
  8.812295673534e-12    7  4  3  2
  1.295644198740e-09    7  4  3  3
  2.468325861081e-10    7  4  4  1
  5.419686329034e-03    7  4  4  2
  3.421562138150e-09    7  4  4  4
 -9.405300060949e-11    7  4  5  1
 -4.324824089537e-03    7  4  5  3
  2.551749485851e-10    7  4  5  4
  3.766794804256e-09    7  4  5  5
  7.905546024807e-10    7  4  6  1
 -2.175391731024e-03    7  4  6  2
 -6.156926529751e-10    7  4  6  4
 -7.977567695741e-10    7  4  6  5
  2.403857670629e-09    7  4  6  6
  3.474784560930e-03    7  4  7  1
  6.599544779205e-10    7  4  7  2
  1.773950377807e-10    7  4  7  3
  2.762266343235e-02    7  4  7  4
  7.982973085072e-10    7  5  1  1
  9.470860329775e-10    7  5  2  2
 -2.970723167019e-03    7  5  3  1
 -6.980770735526e-11    7  5  3  2
  5.860279334279e-10    7  5  3  3
 -1.902189995167e-10    7  5  4  1
  2.963238670909e-03    7  5  4  3
 -1.023936946600e-09    7  5  4  4
 -2.474856231413e-10    7  5  5  1
  6.241770154854e-03    7  5  5  2
  1.231295711439e-10    7  5  5  4
 -4.979115555793e-10    7  5  5  5
 -1.638521135028e-11    7  5  6  1
 -2.863373727150e-03    7  5  6  3
  8.746966342484e-10    7  5  6  4
  2.371155143133e-10    7  5  6  5
 -8.897295000128e-10    7  5  6  6
 -1.416344943620e-10    7  5  7  2
 -1.262255877520e-10    7  5  7  3
  2.891428436733e-02    7  5  7  5
  3.118779392771e-09    7  6  1  1
  1.461598967562e-05    7  6  2  1
  2.311535342115e-09    7  6  2  2
  2.020915499706e-10    7  6  3  2
  2.399638022525e-09    7  6  3  3
  7.184427357792e-10    7  6  4  1
 -1.977999167369e-03    7  6  4  2
  4.987692446505e-09    7  6  4  4
  1.631392895552e-10    7  6  5  1
  1.847030311634e-03    7  6  5  3
  7.576696153827e-11    7  6  5  4
  6.138024902651e-09    7  6  5  5
  8.788562495882e-10    7  6  6  1
  2.560408578558e-03    7  6  6  2
 -1.426494755237e-09    7  6  6  4
  6.779293171720e-10    7  6  6  5
  4.328979853130e-09    7  6  6  6
 -7.396973226171e-05    7  6  7  1
  1.059389132687e-09    7  6  7  2
  2.012140870411e-10    7  6  7  3
 -7.597712928308e-03    7  6  7  4
  1.664374428961e-02    7  6  7  6
  4.326204690888e-01    7  7  1  1
 -5.338887057634e-10    7  7  2  1
  3.595533429501e-01    7  7  2  2
  1.042416142746e-09    7  7  3  1
  3.720345092428e-01    7  7  3  3
  5.812071179530e-02    7  7  4  1
  1.373343258031e-09    7  7  4  2
  1.146770842975e-09    7  7  4  3
  6.284767230473e-01    7  7  4  4
  2.402814742484e-09    7  7  5  2
 -2.214112622347e-10    7  7  5  3
  7.025585783117e-01    7  7  5  5
  7.303300944247e-02    7  7  6  1
  1.818597843046e-09    7  7  6  2
  5.540659968718e-09    7  7  6  3
 -1.073427200219e-01    7  7  6  4
  5.364168436860e-01    7  7  6  6
 -2.792145817590e-09    7  7  7  1
  9.210561349527e-02    7  7  7  2
  4.178334784304e-09    7  7  7  4
 -3.885620345551e-10    7  7  7  5
  6.552326946649e-09    7  7  7  6
  7.444956889283e-01    7  7  7  7
  1.412812446702e-01    8  1  1  1
  2.139135652655e-10    8  1  2  1
  1.652734611729e-01    8  1  2  2
 -7.532977697420e-10    8  1  3  1
  1.493659288696e-01    8  1  3  3
 -3.823241595648e-02    8  1  4  1
 -1.168891056671e-09    8  1  4  2
 -9.313486705137e-10    8  1  4  3
 -1.099012498392e-01    8  1  4  4
 -2.121907268351e-09    8  1  5  2
  2.278290568156e-10    8  1  5  3
 -1.275685531626e-01    8  1  5  5
 -2.906624909334e-02    8  1  6  1
 -1.478393997707e-09    8  1  6  2
 -4.112796226885e-09    8  1  6  3
  2.471332954514e-02    8  1  6  4
 -8.945912218728e-02    8  1  6  6
  1.151301860602e-09    8  1  7  1
 -7.129711941699e-02    8  1  7  2
 -7.391622450195e-10    8  1  7  4
  3.378451604064e-10    8  1  7  5
 -1.137091764892e-09    8  1  7  6
 -1.143247301657e-01    8  1  7  7
  1.573547582905e-01    8  1  8  1
 -1.972767783135e-10    8  2  1  1
  1.431527591479e-02    8  2  2  1
 -4.458229699232e-10    8  2  2  2
  3.876056830084e-12    8  2  3  2
 -3.226755953049e-10    8  2  3  3
  6.293178334568e-11    8  2  4  1
 -1.456249564338e-03    8  2  4  2
  3.206956580977e-10    8  2  4  4
 -9.040102860516e-11    8  2  5  1
 -8.451626569595e-04    8  2  5  3
 -1.882402489182e-12    8  2  5  4
  3.545726034009e-10    8  2  5  5
  2.043370619093e-11    8  2  6  1
 -2.207935719935e-03    8  2  6  2
 -5.581885360902e-11    8  2  6  4
  3.880535650051e-11    8  2  6  5
  2.723586652979e-10    8  2  6  6
 -3.112614588379e-03    8  2  7  1
  2.605731515613e-10    8  2  7  2
  2.836485421440e-11    8  2  7  3
 -5.455513248298e-04    8  2  7  4
 -3.044375194805e-04    8  2  7  6
  4.595452723684e-10    8  2  7  7
 -3.865218481823e-10    8  2  8  1
  1.284427358934e-02    8  2  8  2
 -1.043340798023e-10    8  3  1  1
  9.227488419929e-11    8  3  2  2
  1.318561609239e-02    8  3  3  1
 -3.149473320486e-11    8  3  3  2
  6.301193459129e-11    8  3  3  3
 -1.385734474603e-10    8  3  4  1
 -2.352697976977e-03    8  3  4  3
 -3.421373742554e-10    8  3  4  4
  1.021659100732e-11    8  3  5  1
 -4.696100609367e-04    8  3  5  2
  3.950038968739e-11    8  3  5  4
 -2.936136281380e-10    8  3  5  5
 -3.127362448373e-10    8  3  6  1
 -1.554538306776e-03    8  3  6  3
  1.584946988997e-10    8  3  6  4
  5.827948435313e-11    8  3  6  5
 -4.864010831012e-10    8  3  6  6
 -9.405109715464e-11    8  3  7  2
  6.611812504908e-11    8  3  7  3
  2.232493679382e-03    8  3  7  5
 -6.018842272399e-10    8  3  7  7
  1.965731623094e-10    8  3  8  1
  1.286449655550e-02    8  3  8  3
 -6.596494596608e-02    8  4  1  1
 -3.886334766576e-11    8  4  2  1
 -4.976916403956e-02    8  4  2  2
 -1.982051119005e-10    8  4  3  1
 -5.331382589856e-02    8  4  3  3
 -1.814140549505e-02    8  4  4  1
 -8.659693803061e-11    8  4  4  2
 -1.637499497334e-10    8  4  4  3
 -7.346780847730e-02    8  4  4  4
 -1.491960291883e-10    8  4  5  2
  7.009291248713e-11    8  4  5  3
 -7.337680278341e-02    8  4  5  5
 -9.095731040085e-03    8  4  6  1
 -6.916648818150e-11    8  4  6  2
 -6.666762634343e-10    8  4  6  3
  1.207251591638e-02    8  4  6  4
 -3.924947882093e-02    8  4  6  6
  4.426914158091e-10    8  4  7  1
 -5.609967511647e-03    8  4  7  2
 -5.142069238147e-10    8  4  7  4
 -2.205829747349e-11    8  4  7  5
 -1.099905824556e-09    8  4  7  6
 -7.712821707881e-02    8  4  7  7
  3.244895408258e-03    8  4  8  1
 -5.674831377219e-11    8  4  8  2
  1.287869382995e-10    8  4  8  3
  3.508497438048e-02    8  4  8  4
 -2.088292268160e-10    8  5  2  1
  2.374138507974e-11    8  5  3  1
 -9.479381292123e-04    8  5  3  2
 -3.787349419382e-11    8  5  4  2
 -6.362556190187e-11    8  5  4  3
 -1.171253875807e-02    8  5  5  1
 -1.037145027822e-11    8  5  5  2
 -6.660793227492e-11    8  5  5  3
 -6.356693855918e-03    8  5  5  4
 -7.406737310701e-11    8  5  6  2
 -5.980680197877e-11    8  5  6  3
 -8.655402155947e-03    8  5  6  5
  1.169082248496e-10    8  5  7  1
 -2.788809184416e-03    8  5  7  3
 -4.616826927163e-11    8  5  7  4
  3.194395730296e-10    8  5  7  5
 -9.422484367540e-11    8  5  7  6
 -1.353282376219e-11    8  5  8  2
  1.221230593884e-12    8  5  8  3
  1.796163808982e-02    8  5  8  5
 -8.347622979669e-02    8  6  1  1
 -2.019545364153e-11    8  6  2  1
 -6.037887140030e-02    8  6  2  2
 -5.756330366689e-10    8  6  3  1
 -6.405527033616e-02    8  6  3  3
 -1.420176144939e-02    8  6  4  1
 -3.346878139048e-10    8  6  4  2
 -2.222250113248e-10    8  6  4  3
 -1.142126003660e-01    8  6  4  4
 -5.192459498502e-10    8  6  5  2
  1.086058359684e-10    8  6  5  3
 -1.390849774133e-01    8  6  5  5
 -2.846333348585e-02    8  6  6  1
 -3.841342436644e-10    8  6  6  2
 -1.386936484044e-09    8  6  6  3
  3.345599422016e-02    8  6  6  4
 -9.160638388247e-02    8  6  6  6
  7.561311693462e-10    8  6  7  1
 -2.015255582668e-02    8  6  7  2
 -1.621910111025e-09    8  6  7  4
  1.601102013293e-10    8  6  7  5
 -1.912383006982e-09    8  6  7  6
 -1.477682905209e-01    8  6  7  7
  2.266293248116e-02    8  6  8  1
 -9.174307312259e-11    8  6  8  2
  2.022965979244e-10    8  6  8  3
  2.588590542259e-02    8  6  8  4
  6.116133197592e-02    8  6  8  6
  2.869803760647e-09    8  7  1  1
 -6.372872720539e-03    8  7  2  1
  2.069593861908e-09    8  7  2  2
  3.100651472972e-11    8  7  3  2
  2.196975137593e-09    8  7  3  3
  5.879199342463e-10    8  7  4  1
 -9.596351914453e-04    8  7  4  2
  3.769020941476e-09    8  7  4  4
  1.924120804442e-10    8  7  5  1
  1.735116005473e-03    8  7  5  3
  3.903577567357e-11    8  7  5  4
  4.589222904857e-09    8  7  5  5
  6.969446527262e-10    8  7  6  1
 -1.753155023155e-04    8  7  6  2
 -1.141943849400e-09    8  7  6  4
  5.679234820899e-10    8  7  6  5
  2.949212736474e-09    8  7  6  6
 -5.721099590064e-03    8  7  7  1
  7.072704408073e-10    8  7  7  2
 -1.863956432658e-11    8  7  7  3
 -6.913074643875e-03    8  7  7  4
  1.740939078831e-04    8  7  7  6
  5.185674542144e-09    8  7  7  7
 -7.976581872124e-10    8  7  8  1
 -4.969197354730e-04    8  7  8  2
 -9.725697472592e-10    8  7  8  4
 -8.934567558565e-11    8  7  8  5
 -1.527117222195e-09    8  7  8  6
  1.376380460871e-02    8  7  8  7
  4.766309690592e-01    8  8  1  1
 -2.685345837645e-10    8  8  2  1
  4.133446236982e-01    8  8  2  2
  3.069366322632e-10    8  8  3  1
  4.236858742910e-01    8  8  3  3
  3.097428492002e-02    8  8  4  1
  4.523046640403e-10    8  8  4  2
  6.443601700447e-10    8  8  4  3
  4.941300344566e-01    8  8  4  4
  9.535421857438e-10    8  8  5  2
 -1.115323490034e-10    8  8  5  3
  5.315126533610e-01    8  8  5  5
  4.281520644473e-02    8  8  6  1
  5.594789463290e-10    8  8  6  2
  2.302848646126e-09    8  8  6  3
 -6.323399320396e-02    8  8  6  4
  4.248859080091e-01    8  8  6  6
 -1.678265500153e-09    8  8  7  1
  3.037025230255e-02    8  8  7  2
  2.632608962359e-09    8  8  7  4
  6.550216422698e-10    8  8  7  5
  4.228542973749e-09    8  8  7  6
  5.491931081449e-01    8  8  7  7
 -1.414106734849e-02    8  8  8  1
  1.633098846310e-10    8  8  8  2
 -3.007541623398e-10    8  8  8  3
 -6.752476576478e-02    8  8  8  4
 -1.052577404781e-01    8  8  8  6
  3.684409996468e-09    8  8  8  7
  5.023795870792e-01    8  8  8  8
  1.417053673116e-09    9  1  1  1
  9.186040582840e-10    9  1  2  2
  7.562148548329e-03    9  1  3  1
  2.666689364322e-11    9  1  3  2
  9.183090830123e-10    9  1  3  3
  1.275954321408e-10    9  1  4  1
 -7.607815041968e-05    9  1  4  3
  1.495779441786e-09    9  1  4  4
  7.723620843284e-12    9  1  5  1
  1.653386032328e-03    9  1  5  2
  3.232771332418e-11    9  1  5  4
  2.019474460169e-09    9  1  5  5
  1.139877758549e-10    9  1  6  1
 -1.986132279620e-03    9  1  6  3
 -3.928487091490e-10    9  1  6  4
  4.679424163056e-11    9  1  6  5
  1.148947978797e-09    9  1  6  6
  2.999767963822e-10    9  1  7  2
  1.368428761889e-11    9  1  7  3
  2.298112084599e-03    9  1  7  5
  2.049268703181e-09    9  1  7  7
 -3.356243020343e-10    9  1  8  1
  7.673818423077e-03    9  1  8  3
 -2.973597891125e-10    9  1  8  4
  1.232828757226e-11    9  1  8  5
 -7.665937690512e-10    9  1  8  6
  1.673990299045e-09    9  1  8  8
  1.106371909575e-02    9  1  9  1
 -2.473557781679e-11    9  2  2  1
  2.376054755522e-11    9  2  3  1
  1.181227602109e-02    9  2  3  2
 -5.992468535262e-11    9  2  4  2
 -1.242243058169e-10    9  2  4  3
 -1.269137886459e-03    9  2  5  1
 -3.124705885619e-11    9  2  5  2
 -1.241024225263e-10    9  2  5  3
 -1.609223053806e-03    9  2  5  4
 -1.569576480298e-10    9  2  6  2
 -9.833100506380e-11    9  2  6  3
 -1.867671014746e-03    9  2  6  5
  7.098188558124e-12    9  2  7  1
 -5.548611533987e-03    9  2  7  3
 -1.453698983898e-11    9  2  7  4
  1.143655331529e-11    9  2  7  5
 -5.178916295361e-11    9  2  7  6
 -8.842405930624e-12    9  2  8  2
 -1.504683240078e-11    9  2  8  3
  1.886967934804e-03    9  2  8  5
 -1.036573810630e-10    9  2  8  7
 -3.732055868225e-11    9  2  9  1
  8.191432853011e-03    9  2  9  2
  8.825577200335e-02    9  3  1  1
  2.072973050637e-10    9  3  2  1
  1.318978025082e-01    9  3  2  2
 -6.681170123497e-10    9  3  3  1
  1.384680191347e-01    9  3  3  3
 -3.401966750027e-02    9  3  4  1
 -1.069054001576e-09    9  3  4  2
 -9.808749763943e-10    9  3  4  3
 -1.153475378024e-01    9  3  4  4
 -1.928813493007e-09    9  3  5  2
  2.268035840125e-10    9  3  5  3
 -1.296130591325e-01    9  3  5  5
 -2.457282640332e-02    9  3  6  1
 -1.328062340402e-09    9  3  6  2
 -4.220198329432e-09    9  3  6  3
  2.607765530133e-02    9  3  6  4
 -8.360030197428e-02    9  3  6  6
  1.002150201446e-09    9  3  7  1
 -6.401686333255e-02    9  3  7  2
 -5.693223791480e-10    9  3  7  4
  3.960126314187e-10    9  3  7  5
 -1.195550379249e-09    9  3  7  6
 -1.111896603499e-01    9  3  7  7
  1.191080579716e-01    9  3  8  1
 -3.094232898123e-10    9  3  8  2
  1.569366376334e-10    9  3  8  3
  8.921697418435e-03    9  3  8  4
  2.314794130626e-02    9  3  8  6
 -8.419565967300e-10    9  3  8  7
 -2.645666456726e-02    9  3  8  8
 -3.905069315483e-10    9  3  9  1
  1.252862749941e-01    9  3  9  3
 -2.273986833904e-09    9  4  1  1
 -1.755554477293e-09    9  4  2  2
  4.284057505808e-04    9  4  3  1
 -1.505584098775e-10    9  4  3  2
 -1.955577979736e-09    9  4  3  3
 -4.512784825445e-10    9  4  4  1
 -6.814952130782e-03    9  4  4  3
 -4.233614380887e-09    9  4  4  4
 -1.451258761248e-10    9  4  5  1
 -2.032379544373e-03    9  4  5  2
 -2.652542398614e-10    9  4  5  4
 -5.342675733226e-09    9  4  5  5
 -5.407925960846e-10    9  4  6  1
  2.385987845893e-03    9  4  6  3
  1.012990137546e-09    9  4  6  4
 -3.355183417136e-10    9  4  6  5
 -2.366410339560e-09    9  4  6  6
 -5.336497607653e-10    9  4  7  2
 -5.984519036886e-11    9  4  7  3
 -7.029186531994e-03    9  4  7  5
 -3.976687263847e-09    9  4  7  7
  6.558818647035e-10    9  4  8  1
 -1.565278367441e-03    9  4  8  3
  4.764303527039e-10    9  4  8  4
  1.878772922251e-10    9  4  8  5
  1.276994372920e-09    9  4  8  6
 -2.904016810616e-09    9  4  8  8
 -6.794384700677e-04    9  4  9  1
  1.099688436276e-10    9  4  9  2
  8.324032155629e-10    9  4  9  3
  1.677808751921e-02    9  4  9  4
  1.231494025587e-10    9  5  1  1
  2.904862436021e-03    9  5  2  1
  4.661308458553e-11    9  5  2  2
 -9.843632541017e-11    9  5  3  2
  1.305786571610e-10    9  5  3  3
  5.096612723523e-11    9  5  4  1
  2.406308408017e-03    9  5  4  2
  4.442879384999e-10    9  5  4  4
  3.676670266276e-11    9  5  5  1
 -9.448000581531e-03    9  5  5  3
  2.449010307283e-10    9  5  5  4
 -4.282478205175e-11    9  5  5  5
  4.286700839521e-11    9  5  6  1
 -1.824417132680e-03    9  5  6  2
  2.339320370046e-10    9  5  6  4
 -8.129906049154e-10    9  5  6  5
 -3.060881891265e-10    9  5  6  6
  2.318646282705e-03    9  5  7  1
 -9.135568599923e-11    9  5  7  2
  2.267420502918e-10    9  5  7  3
  1.221079760318e-02    9  5  7  4
 -4.972385408017e-03    9  5  7  6
 -2.695443463020e-10    9  5  7  7
  6.051031702565e-11    9  5  8  1
 -2.661465945331e-04    9  5  8  2
 -1.385464065124e-10    9  5  8  4
 -2.997874551510e-10    9  5  8  5
 -1.198954548638e-10    9  5  8  6
 -4.682145524667e-03    9  5  8  7
  3.692492601035e-11    9  5  8  8
 -2.737033542277e-11    9  5  9  2
  5.757237034494e-11    9  5  9  3
  2.538632138436e-02    9  5  9  5
 -5.896789783012e-09    9  6  1  1
 -4.733765079016e-09    9  6  2  2
 -3.202172632713e-03    9  6  3  1
 -1.378565232535e-10    9  6  3  2
 -5.876426889802e-09    9  6  3  3
 -1.211884801671e-09    9  6  4  1
  2.970417520215e-03    9  6  4  3
 -6.976291470056e-09    9  6  4  4
 -1.632299718059e-10    9  6  5  1
  2.109613182322e-03    9  6  5  2
  3.892348064987e-12    9  6  5  4
 -6.558883353476e-09    9  6  5  5
 -8.797861142991e-10    9  6  6  1
 -5.679473408752e-03    9  6  6  3
  1.554355804445e-09    9  6  6  4
  3.776128455863e-11    9  6  6  5
 -4.427493835236e-09    9  6  6  6
 -4.516610239314e-10    9  6  7  2
 -1.082956003633e-10    9  6  7  3
  8.844872780703e-03    9  6  7  5
 -7.409959120754e-09    9  6  7  7
  1.842371439116e-10    9  6  8  1
  1.882639812173e-03    9  6  8  3
  2.368602355346e-09    9  6  8  4
  1.991801047242e-10    9  6  8  5
  2.510359478087e-09    9  6  8  6
 -5.889179258155e-09    9  6  8  8
  2.788570240620e-03    9  6  9  1
  2.515705463704e-11    9  6  9  2
  7.527168648846e-10    9  6  9  3
 -7.448938079562e-03    9  6  9  4
  1.618716048641e-02    9  6  9  6
 -1.060637998802e-10    9  7  2  1
  2.738027751299e-11    9  7  3  1
 -7.043831204368e-03    9  7  3  2
 -1.254296014073e-10    9  7  4  2
 -7.526258906245e-11    9  7  4  3
 -6.603600159844e-03    9  7  5  1
 -3.471089890086e-11    9  7  5  2
  9.143993060941e-11    9  7  5  3
 -6.183726158981e-03    9  7  5  4
 -3.001730425040e-11    9  7  6  2
 -7.900636386086e-11    9  7  6  3
 -7.183987052963e-03    9  7  6  5
  6.174891403276e-11    9  7  7  1
 -7.346308701486e-03    9  7  7  3
 -4.824211011091e-10    9  7  7  4
  2.157674405554e-10    9  7  7  5
 -1.429162995574e-10    9  7  7  6
 -3.108027199928e-11    9  7  8  2
 -2.688570924243e-11    9  7  8  3
  8.532450571239e-03    9  7  8  5
 -1.501891763085e-10    9  7  8  7
 -3.553108140892e-11    9  7  9  1
  3.569202672401e-03    9  7  9  2
  3.501914864623e-10    9  7  9  4
 -5.143112135476e-10    9  7  9  5
  3.383741231090e-10    9  7  9  6
  2.442139189885e-02    9  7  9  7
 -2.933772192364e-09    9  8  1  1
 -1.853853390491e-09    9  8  2  2
  1.198066880791e-02    9  8  3  1
 -3.031370960728e-11    9  8  3  2
 -2.096981035732e-09    9  8  3  3
 -7.603263086574e-10    9  8  4  1
 -2.388237620011e-03    9  8  4  3
 -5.256157801346e-09    9  8  4  4
  1.787300375243e-11    9  8  5  1
 -1.408595305952e-03    9  8  5  2
 -1.300419088611e-10    9  8  5  4
 -6.656554748917e-09    9  8  5  5
 -1.039049236992e-09    9  8  6  1
  1.924465186505e-03    9  8  6  3
  1.321606843534e-09    9  8  6  4
 -1.830990783306e-10    9  8  6  5
 -3.330107321654e-09    9  8  6  6
 -1.067617266719e-09    9  8  7  2
  1.190489483281e-11    9  8  7  3
 -7.370825299789e-03    9  8  7  5
 -6.045845933647e-09    9  8  7  7
  1.562690664250e-09    9  8  8  1
  1.257280560387e-03    9  8  8  3
  9.724424708139e-10    9  8  8  4
 -7.806888571946e-12    9  8  8  5
  1.784530683602e-09    9  8  8  6
 -4.463012475197e-09    9  8  8  8
 -2.344390087917e-03    9  8  9  1
  2.992388438651e-11    9  8  9  2
  1.549688857031e-09    9  8  9  3
  1.778068429334e-03    9  8  9  4
 -8.345090061975e-03    9  8  9  6
  1.481509614886e-10    9  8  9  7
  1.608121593584e-02    9  8  9  8
  4.797925644599e-01    9  9  1  1
 -3.499596987360e-10    9  9  2  1
  4.155169717441e-01    9  9  2  2
  4.499168978689e-10    9  9  3  1
  4.546401044129e-01    9  9  3  3
  5.535833722471e-02    9  9  4  1
  8.560226024593e-10    9  9  4  2
  1.210108297226e-09    9  9  4  3
  6.056372578477e-01    9  9  4  4
  1.823026184815e-09    9  9  5  2
 -1.835528487898e-10    9  9  5  3
  6.522978666739e-01    9  9  5  5
  5.551370829011e-02    9  9  6  1
  1.017380141556e-09    9  9  6  2
  3.779177875625e-09    9  9  6  3
 -9.291151956971e-02    9  9  6  4
  4.839964557806e-01    9  9  6  6
 -2.322658528214e-09    9  9  7  1
  5.425349753350e-02    9  9  7  2
  2.954651504951e-09    9  9  7  4
  4.624029318176e-10    9  9  7  5
  5.601764883705e-09    9  9  7  6
  6.440018409679e-01    9  9  7  7
 -5.838909477444e-02    9  9  8  1
  2.755066810094e-10    9  9  8  2
 -1.509384331680e-10    9  9  8  3
 -8.797716473679e-02    9  9  8  4
 -1.283548975517e-01    9  9  8  6
  4.599869931304e-09    9  9  8  7
  5.366717937226e-01    9  9  8  8
  1.944103185067e-09    9  9  9  1
 -7.302836726209e-02    9  9  9  3
 -4.525862122760e-09    9  9  9  4
 -1.824657537435e-12    9  9  9  5
 -8.415706486558e-09    9  9  9  6
 -6.217858449697e-09    9  9  9  8
  6.694832974249e-01    9  9  9  9
 -4.828298685167e+00    1  1  0  0
  1.170334254925e-09    2  1  0  0
 -4.611339493650e+00    2  2  0  0
 -5.951881934315e-10    3  1  0  0
 -4.647050589723e+00    3  3  0  0
 -1.825639858505e-01    4  1  0  0
 -1.130172422803e-09    4  2  0  0
 -1.764870257363e-09    4  3  0  0
 -4.271205037895e+00    4  4  0  0
 -2.324604566716e-09    5  2  0  0
  8.184756077255e-11    5  3  0  0
 -4.585783604585e+00    5  5  0  0
 -2.908552808972e-01    6  1  0  0
 -1.477626673332e-09    6  2  0  0
 -7.361533765621e-09    6  3  0  0
  5.361459249659e-01    6  4  0  0
 -3.677297122531e+00    6  6  0  0
  1.091769501319e-08    7  1  0  0
 -7.996760669064e-02    7  2  0  0
 -1.904244436431e-08    7  4  0  0
 -6.540894380170e-10    7  5  0  0
 -3.169292044961e-08    7  6  0  0
 -4.602372101202e+00    7  7  0  0
 -2.718101477252e-01    8  1  0  0
  3.515736967742e-10    8  2  0  0
  6.492033251490e-10    8  3  0  0
  4.811795584942e-01    8  4  0  0
  7.627685486037e-01    8  6  0  0
 -2.595528359735e-08    8  7  0  0
 -4.117990279819e+00    8  8  0  0
 -1.380356110960e-08    9  1  0  0
 -7.859842124965e-02    9  3  0  0
  2.448436939622e-08    9  4  0  0
 -2.704638144413e-10    9  5  0  0
  4.817348184148e-08    9  6  0  0
  3.175776076178e-08    9  8  0  0
 -4.667713193016e+00    9  9  0  0
    -77.024400273055   0  0  0  0
