#INFO: **** input file is /projects/bamu3429/BENCHMARK/fresh_atoms/MRPT/vtz/monoxides/CrO/mrpt.py ****
import json
from pyscf import gto,scf,mcscf, fci, lo, ci, cc
from pyscf.scf import ROHF, UHF,ROKS
import numpy as np
import pandas as pd

# THIS IS WERE IT STARTS ====================================

df=json.load(open("../../../trail.json"))

spins={'ScO':1, 'TiO':2, 'VO':3, 'CrO':4, 'MnO':5, 'FeO':4, 'CuO':1}

nd={'Sc':(1,0), 'Ti':(2,0), 'V':(3,0), 'Cr':(5,0), 'Mn':(5,0), 'Fe':(5,1), 'Cu':(5,4)}

cas={'Sc':3, 'Ti':4, 'V':5, 'Cr':6, 'Mn':7, 'Fe':8, 'Cu':11}

re={'ScO':1.668, 'TiO':1.623, 'VO':1.591, 'CrO':1.621, 'MnO':1.648, 'FeO':1.616, 'CuO':1.725}

datacsv={}
for nm in ['basis','charge','method','molecule','pseudopotential',
           'totalenergy','totalenergy-stocherr','totalenergy-syserr']:
  datacsv[nm]=[]

basis='vtz'
element='Cr'

mol=gto.Mole()
mol.ecp={}
mol.basis={}
for el in [element,'O']:
  mol.ecp[el]=gto.basis.parse_ecp(df[el]['ecp'])
  mol.basis[el]=gto.basis.parse(df[el][basis])
mol.charge=0
mol.spin=spins[element+'O']
mol.build(atom="%s 0. 0. 0.; O 0. 0. %g"%(element,re[element+'O']),verbose=4)

m=ROHF(mol)
m.level_shift=1000.0
dm=m.from_chk("../../../../HF/monoxides/"+element+basis+"0.chk")
hf=m.kernel(dm)
m.analyze()

from pyscf.shciscf import shci
mc = shci.SHCISCF(m, 9, 4+cas[element])
#mc.fcisolver.conv_tol = 1e-14
mc.fcisolver.mpiprefix="mpirun -np 28"
mc.fcisolver.num_thrds=12
mc.verbose = 4
cas=mc.kernel()[0]
 
from pyscf.icmpspt import icmpspt
pt=icmpspt.icmpspt(mc,rdmM=500, PTM=1000,\
                          pttype="MRLCC",\
                          third_order=True,\
                          fully_ic=True,\
                          do_dm4=True)

datacsv['basis'].append(basis)
datacsv['charge'].append(0)
datacsv['method'].append('MRPT')
datacsv['molecule'].append(element)
datacsv['pseudopotential'].append('trail')
datacsv['totalenergy'].append(cas+pt)
datacsv['totalenergy-stocherr'].append(0.0)
datacsv['totalenergy-syserr'].append(0.0)
pd.DataFrame(datacsv).to_csv(element+".csv",index=False)

#INFO: ******************** input file end ********************


System: ('Linux', 'bnode0304.rc.int.colorado.edu', '3.10.0-514.41.1.el7.x86_64', '#1 SMP Wed Jan 17 10:26:16 EST 2018', 'x86_64', 'x86_64')  Threads 28
Python 2.7.11 (default, Mar 22 2016, 01:42:54) 
[GCC Intel(R) C++ gcc 4.8 mode]
numpy 1.11.1  scipy 0.17.1
Date: Thu Mar 29 15:56:15 2018
PySCF version 1.4
PySCF path  /projects/bamu3429/softwares/pyscf_uptodate/pyscf
GIT ORIG_HEAD e2292e6edec2b0e0024c21b81de03db1d7bd4121
GIT HEAD      ref: refs/heads/master
GIT master branch  f3591ef22170896a4cdc2aadaa6f5da388ffcadb

[INPUT] VERBOSE 4
[INPUT] num atoms = 2
[INPUT] num electrons = 20
[INPUT] charge = 0
[INPUT] spin (= nelec alpha-beta = 2S) = 4
[INPUT] symmetry False subgroup None
[INPUT]  1 Cr     0.000000000000   0.000000000000   0.000000000000 AA    0.000000000000   0.000000000000   0.000000000000 Bohr
[INPUT]  2 O      0.000000000000   0.000000000000   1.621000000000 AA    0.000000000000   0.000000000000   3.063246047920 Bohr
[INPUT] ---------------- BASIS SET ---------------- 
[INPUT] l, kappa, [nprim/nctr], expnt,             c_1 c_2 ...
[INPUT] Cr
[INPUT] 0    0    [12   /1   ]  41.45590127       0.010332
                                22.20089455       -0.091393
                                12.37022616       0.412444
                                7.15443966        -0.722409
                                3.63012556        0.039693
                                1.88942247        0.321055
                                1.04381355        0.652182
                                0.47307333        0.264443
                                0.22628807        -0.008646
                                0.10750747        0.012188
                                0.05101028        -0.00242
                                0.0242372         0.001733
[INPUT] 0    0    [12   /1   ]  41.45590127       -0.001971
                                22.20089455       0.019152
                                12.37022616       -0.094562
                                7.15443966        0.178991
                                3.63012556        -0.015716
                                1.88942247        -0.084882
                                1.04381355        -0.243744
                                0.47307333        -0.214624
                                0.22628807        0.055092
                                0.10750747        0.415903
                                0.05101028        0.543473
                                0.0242372         0.170131
[INPUT] 0    0    [12   /1   ]  41.45590127       -0.005985
                                22.20089455       0.069637
                                12.37022616       -0.403654
                                7.15443966        0.899468
                                3.63012556        -0.19655
                                1.88942247        -1.358682
                                1.04381355        -0.066602
                                0.47307333        0.748011
                                0.22628807        0.743168
                                0.10750747        0.120335
                                0.05101028        -0.554574
                                0.0242372         -0.284337
[INPUT] 0    0    [12   /1   ]  41.45590127       -0.005431
                                22.20089455       0.075825
                                12.37022616       -0.506871
                                7.15443966        1.314927
                                3.63012556        -0.7377
                                1.88942247        -2.271634
                                1.04381355        1.711851
                                0.47307333        1.720924
                                0.22628807        -1.434003
                                0.10750747        -1.046849
                                0.05101028        0.595081
                                0.0242372         0.606245
[INPUT] 0    0    [1    /1   ]  0.0242372            1
[INPUT] 0    0    [1    /1   ]  0.01151614           1
[INPUT] 1    0    [12   /1   ]  28.88080716       -0.002973
                                13.19380569       0.044202
                                7.25722596        -0.232476
                                4.84342676        0.167654
                                2.76949909        0.179744
                                1.50719356        0.46058
                                0.72516508        0.338218
                                0.36385743        0.097984
                                0.16204617        0.012145
                                0.07447705        -0.000948
                                0.03422994        0.000821
                                0.01573221        -0.00022
[INPUT] 1    0    [12   /1   ]  28.88080716       0.000536
                                13.19380569       -0.009363
                                7.25722596        0.054752
                                4.84342676        -0.042977
                                2.76949909        -0.049244
                                1.50719356        -0.128712
                                0.72516508        -0.11682
                                0.36385743        0.044517
                                0.16204617        0.322192
                                0.07447705        0.482878
                                0.03422994        0.275764
                                0.01573221        0.025472
[INPUT] 1    0    [12   /1   ]  28.88080716       -0.000428
                                13.19380569       0.034429
                                7.25722596        -0.307446
                                4.84342676        0.24996
                                2.76949909        0.789151
                                1.50719356        0.129313
                                0.72516508        -0.921684
                                0.36385743        -0.378847
                                0.16204617        0.566809
                                0.07447705        0.440905
                                0.03422994        0.024535
                                0.01573221        0.005078
[INPUT] 1    0    [12   /1   ]  28.88080716       0.002227
                                13.19380569       0.046024
                                7.25722596        -0.727345
                                4.84342676        1.251481
                                2.76949909        1.00182
                                1.50719356        -1.701806
                                0.72516508        -0.622978
                                0.36385743        1.581831
                                0.16204617        -0.060905
                                0.07447705        -0.667464
                                0.03422994        -0.031147
                                0.01573221        -0.01129
[INPUT] 1    0    [1    /1   ]  0.01573221           1
[INPUT] 1    0    [1    /1   ]  0.00723058           1
[INPUT] 2    0    [10   /1   ]  46.50908408       0.000358
                                21.60133229       -0.010512
                                11.03652449       0.11118
                                4.54288797        0.164184
                                2.18180243        0.267436
                                1.04009058        0.310836
                                0.48262909        0.28353
                                0.21570372        0.173079
                                0.10059873        0.057279
                                0.04653409        0.00937
[INPUT] 2    0    [10   /1   ]  46.50908408       0.000725
                                21.60133229       0.005694
                                11.03652449       -0.104091
                                4.54288797        -0.217444
                                2.18180243        -0.413534
                                1.04009058        -0.07805
                                0.48262909        0.290464
                                0.21570372        0.417258
                                0.10059873        0.237439
                                0.04653409        0.051282
[INPUT] 2    0    [10   /1   ]  46.50908408       -0.003236
                                21.60133229       0.00626
                                11.03652449       0.082765
                                4.54288797        0.409918
                                2.18180243        0.374551
                                1.04009058        -0.692379
                                0.48262909        -0.433198
                                0.21570372        0.307071
                                0.10059873        0.45679
                                0.04653409        0.105679
[INPUT] 2    0    [1    /1   ]  0.04653409           1
[INPUT] 2    0    [1    /1   ]  0.02152533           1
[INPUT] 3    0    [1    /1   ]  2.951278             1
[INPUT] 3    0    [1    /1   ]  0.820301             1
[INPUT] 3    0    [1    /1   ]  0.22800079           1
[INPUT] 4    0    [1    /1   ]  2.625115             1
[INPUT] 4    0    [1    /1   ]  0.72964472           1
[INPUT] O
[INPUT] 0    0    [10   /1   ]  57.663349         -0.002794
                                35.726816         0.023976
                                22.453757         -0.115974
                                14.732301         0.288033
                                9.739917          -0.274786
                                5.042008          -0.083789
                                2.157818          0.063778
                                1.002916          0.410182
                                0.421839          0.504044
                                0.173041          0.172152
[INPUT] 0    0    [1    /1   ]  1.849096             1
[INPUT] 0    0    [1    /1   ]  0.255434             1
[INPUT] 0    0    [1    /1   ]  0.141483             1
[INPUT] 1    0    [10   /1   ]  52.47406          -0.000522
                                32.138432         0.004857
                                19.458579         -0.027749
                                11.839344         0.074258
                                7.91003           0.014369
                                3.670858          0.153479
                                1.53966           0.283685
                                0.647119          0.358201
                                0.267853          0.29559
                                0.107198          0.104889
[INPUT] 1    0    [1    /1   ]  0.622175             1
[INPUT] 1    0    [1    /1   ]  0.193391             1
[INPUT] 1    0    [1    /1   ]  0.052779             1
[INPUT] 2    0    [1    /1   ]  2.324251             1
[INPUT] 2    0    [1    /1   ]  0.656935             1
[INPUT] 2    0    [1    /1   ]  0.2072               1
[INPUT] 3    0    [1    /1   ]  1.423472             1
[INPUT] 3    0    [1    /1   ]  0.48761              1
nuclear repulsion = 27.4218912506354
number of shells = 35
number of NR pGTOs = 480
number of NR cGTOs = 133
basis = {'Cr': [[0, [41.45590127, 0.010332], [22.20089455, -0.091393], [12.37022616, 0.412444], [7.15443966, -0.722409], [3.63012556, 0.039693], [1.88942247, 0.321055], [1.04381355, 0.652182], [0.47307333, 0.264443], [0.22628807, -0.008646], [0.10750747, 0.012188], [0.05101028, -0.00242], [0.0242372, 0.001733]], [0, [41.45590127, -0.001971], [22.20089455, 0.019152], [12.37022616, -0.094562], [7.15443966, 0.178991], [3.63012556, -0.015716], [1.88942247, -0.084882], [1.04381355, -0.243744], [0.47307333, -0.214624], [0.22628807, 0.055092], [0.10750747, 0.415903], [0.05101028, 0.543473], [0.0242372, 0.170131]], [0, [41.45590127, -0.005985], [22.20089455, 0.069637], [12.37022616, -0.403654], [7.15443966, 0.899468], [3.63012556, -0.19655], [1.88942247, -1.358682], [1.04381355, -0.066602], [0.47307333, 0.748011], [0.22628807, 0.743168], [0.10750747, 0.120335], [0.05101028, -0.554574], [0.0242372, -0.284337]], [0, [41.45590127, -0.005431], [22.20089455, 0.075825], [12.37022616, -0.506871], [7.15443966, 1.314927], [3.63012556, -0.7377], [1.88942247, -2.271634], [1.04381355, 1.711851], [0.47307333, 1.720924], [0.22628807, -1.434003], [0.10750747, -1.046849], [0.05101028, 0.595081], [0.0242372, 0.606245]], [0, [0.0242372, 1.0]], [0, [0.01151614, 1.0]], [1, [28.88080716, -0.002973], [13.19380569, 0.044202], [7.25722596, -0.232476], [4.84342676, 0.167654], [2.76949909, 0.179744], [1.50719356, 0.46058], [0.72516508, 0.338218], [0.36385743, 0.097984], [0.16204617, 0.012145], [0.07447705, -0.000948], [0.03422994, 0.000821], [0.01573221, -0.00022]], [1, [28.88080716, 0.000536], [13.19380569, -0.009363], [7.25722596, 0.054752], [4.84342676, -0.042977], [2.76949909, -0.049244], [1.50719356, -0.128712], [0.72516508, -0.11682], [0.36385743, 0.044517], [0.16204617, 0.322192], [0.07447705, 0.482878], [0.03422994, 0.275764], [0.01573221, 0.025472]], [1, [28.88080716, -0.000428], [13.19380569, 0.034429], [7.25722596, -0.307446], [4.84342676, 0.24996], [2.76949909, 0.789151], [1.50719356, 0.129313], [0.72516508, -0.921684], [0.36385743, -0.378847], [0.16204617, 0.566809], [0.07447705, 0.440905], [0.03422994, 0.024535], [0.01573221, 0.005078]], [1, [28.88080716, 0.002227], [13.19380569, 0.046024], [7.25722596, -0.727345], [4.84342676, 1.251481], [2.76949909, 1.00182], [1.50719356, -1.701806], [0.72516508, -0.622978], [0.36385743, 1.581831], [0.16204617, -0.060905], [0.07447705, -0.667464], [0.03422994, -0.031147], [0.01573221, -0.01129]], [1, [0.01573221, 1.0]], [1, [0.00723058, 1.0]], [2, [46.50908408, 0.000358], [21.60133229, -0.010512], [11.03652449, 0.11118], [4.54288797, 0.164184], [2.18180243, 0.267436], [1.04009058, 0.310836], [0.48262909, 0.28353], [0.21570372, 0.173079], [0.10059873, 0.057279], [0.04653409, 0.00937]], [2, [46.50908408, 0.000725], [21.60133229, 0.005694], [11.03652449, -0.104091], [4.54288797, -0.217444], [2.18180243, -0.413534], [1.04009058, -0.07805], [0.48262909, 0.290464], [0.21570372, 0.417258], [0.10059873, 0.237439], [0.04653409, 0.051282]], [2, [46.50908408, -0.003236], [21.60133229, 0.00626], [11.03652449, 0.082765], [4.54288797, 0.409918], [2.18180243, 0.374551], [1.04009058, -0.692379], [0.48262909, -0.433198], [0.21570372, 0.307071], [0.10059873, 0.45679], [0.04653409, 0.105679]], [2, [0.04653409, 1.0]], [2, [0.02152533, 1.0]], [3, [2.951278, 1.0]], [3, [0.820301, 1.0]], [3, [0.22800079, 1.0]], [4, [2.625115, 1.0]], [4, [0.72964472, 1.0]]], 'O': [[0, [57.663349, -0.002794], [35.726816, 0.023976], [22.453757, -0.115974], [14.732301, 0.288033], [9.739917, -0.274786], [5.042008, -0.083789], [2.157818, 0.063778], [1.002916, 0.410182], [0.421839, 0.504044], [0.173041, 0.172152]], [0, [1.849096, 1.0]], [0, [0.255434, 1.0]], [0, [0.141483, 1.0]], [1, [52.47406, -0.000522], [32.138432, 0.004857], [19.458579, -0.027749], [11.839344, 0.074258], [7.91003, 0.014369], [3.670858, 0.153479], [1.53966, 0.283685], [0.647119, 0.358201], [0.267853, 0.29559], [0.107198, 0.104889]], [1, [0.622175, 1.0]], [1, [0.193391, 1.0]], [1, [0.052779, 1.0]], [2, [2.324251, 1.0]], [2, [0.656935, 1.0]], [2, [0.2072, 1.0]], [3, [1.423472, 1.0]], [3, [0.48761, 1.0]]]}
ecp = {'Cr': [10, [[-1, [[], [[13.07675203, 14.0]], [[15.15807582, 1258.1555038], [4.62785686, -98.60998187], [15.41136599, -6552.46055066], [15.38690637, 5353.09061557]], [[5.24897308, 183.07452839]]]], [0, [[], [], [[9.77680844, -91901.2080948], [9.95980111, 96320.14803227], [8.62275214, 3928.3135917], [12.29288144, -10977.62459544], [18.41316592, -1741.60409682], [16.38541961, 4413.26493033]], []]], [1, [[], [], [[12.00099996, -22156.17142851], [11.46524435, 21551.07876111], [16.23852226, 3703.78784703], [18.43861108, -1424.18632323], [8.88877941, -1964.93568469], [7.52644784, 317.50498882]], []]], [2, [[], [], [[11.1066837, -5435.29666496], [8.49801115, 7350.69608766], [12.28065533, 2443.80334995], [8.1885354, -5401.76770998], [14.34306836, 3881.23075486], [15.24784181, -2855.87137953]], []]]]], 'O': [2, [[-1, [[], [[10.27717748, 6.0]], [[15.99566749, 1232.50197768], [10.46901775, -696.47008301], [14.6384801, -2654.22657081], [12.57591181, 2101.67732548]], [[7.77739102, 61.66306486]]]], [0, [[], [], [[12.39426073, -656683.37638839], [12.38126171, 657858.57667068], [8.57671033, 511.50098405], [9.89256508, -2579.54665641], [28.05641604, -57.68129584], [17.24753607, 970.30940152]], []]], [1, [[], [], [[14.78918914, -363027.24258186], [14.82014018, 361852.52314043], [22.89622221, -1300.20069256], [8.51331893, -181.96869573], [11.48609758, 2194.87589959], [27.22017524, 451.19906206]], []]]]]}
CPU time:         3.61


******** <class 'pyscf.scf.rohf.ROHF'> flags ********
method = ROHF
initial guess = minao
damping factor = 0
level shift factor = 1000.0
DIIS = <class 'pyscf.scf.diis.CDIIS'>
DIIS start cycle = 1
DIIS space = 8
SCF tol = 1e-09
SCF gradient tol = None
max. SCF cycles = 50
direct_scf = True
direct_scf_tol = 1e-13
chkfile to save SCF result = /projects/bamu3429/BENCHMARK/fresh_atoms/MRPT/vtz/monoxides/CrO/tmpAmvWqY
max_memory 4000 MB (current use 150 MB)
num. doubly occ = 8  num. singly occ = 4
Set gradient conv threshold to 3.16228e-05
init E= -101.842009248599
  HOMO = 499.888340436378  LUMO = 1000.00271812016
cycle= 1 E= -101.842009248599  delta_E= -2.27e-13  |g|= 1.21e-05  |ddm|= 8.11e-08
  HOMO = -0.111659563758798  LUMO = 0.00271812035202521
Extra cycle  E= -101.84200924868  delta_E= -8.07e-11  |g|= 6e-06  |ddm|= 4.05e-05
converged SCF energy = -101.84200924868
**** MO energy ****
                Roothaan           | alpha              | beta
MO #1   energy= -3.65032619939988  | -3.78500091303366  | -3.51565146270498  occ= 2
MO #2   energy= -2.34188659440834  | -2.45933134913912  | -2.22444183614201  occ= 2
MO #3   energy= -2.32790447100395  | -2.4878497574019   | -2.167959184606    occ= 2
MO #4   energy= -2.32148109952833  | -2.52854243787183  | -2.1144197362966   occ= 2
MO #5   energy= -1.14686300769511  | -1.15560611021633  | -1.13811991965001  occ= 2
MO #6   energy= -0.443686291364456 | -0.46517968102452  | -0.422192865110935 occ= 2
MO #7   energy= -0.430570974135837 | -0.454734251225937 | -0.406407627980228 occ= 2
MO #8   energy= -0.408311784462988 | -0.416524979261416 | -0.400098589664561 occ= 2
MO #9   energy= -0.140577539677994 | -0.515600543353856 | 0.234445245072374  occ= 1
MO #10  energy= -0.13251648519654  | -0.564013236637045 | 0.298980643846507  occ= 1
MO #11  energy= -0.11932298558021  | -0.395278291453324 | 0.156630495297221  occ= 1
MO #12  energy= -0.111659563758798 | -0.526866573778448 | 0.303547490624841  occ= 1
MO #13  energy= 0.00271812035202521 | -0.00323889724901705 | 0.00867559728053357 occ= 0
MO #14  energy= 0.0104423595509128 | 0.00801882388785005 | 0.0128658952139746 occ= 0
MO #15  energy= 0.0127118624471484 | 0.0117725533399362 | 0.0136511574985061 occ= 0
MO #16  energy= 0.0244001453488244 | 0.0196505066927783 | 0.0291504471137833 occ= 0
MO #17  energy= 0.0326006566842261 | 0.0244636415586153 | 0.0407376718098382 occ= 0
MO #18  energy= 0.033727700714098  | 0.0274759797157496 | 0.0399796016046131 occ= 0
MO #19  energy= 0.0419723620729614 | 0.0359011215255696 | 0.0480435048393908 occ= 0
MO #20  energy= 0.0634630060118695 | 0.0630320877949811 | 0.0638938962741246 occ= 0
MO #21  energy= 0.0635357042610523 | 0.0631388232738312 | 0.0639325448380124 occ= 0
MO #22  energy= 0.0722363384059646 | 0.0711627565931289 | 0.0733099202187996 occ= 0
MO #23  energy= 0.0731421612721296 | 0.0659541942255191 | 0.0803303568591449 occ= 0
MO #24  energy= 0.0737447026535406 | 0.0731577526933588 | 0.0743316347174874 occ= 0
MO #25  energy= 0.0910725636897877 | 0.0800889488139598 | 0.102056547083047  occ= 0
MO #26  energy= 0.101858100231284  | 0.0841849336523957 | 0.119531266810169  occ= 0
MO #27  energy= 0.13829875227544   | 0.116594052966815  | 0.160003655997026  occ= 0
MO #28  energy= 0.138823156255622  | 0.132386571033979  | 0.145259645373378  occ= 0
MO #29  energy= 0.196820330296762  | 0.189404452843536  | 0.204236053407556  occ= 0
MO #30  energy= 0.197055602144541  | 0.189478555224451  | 0.204632449376534  occ= 0
MO #31  energy= 0.209861210259923  | 0.182287781149823  | 0.237434639370022  occ= 0
MO #32  energy= 0.216591922658448  | 0.206121413663575  | 0.22706255277491   occ= 0
MO #33  energy= 0.235215203093913  | 0.224406983281649  | 0.246023433250776  occ= 0
MO #34  energy= 0.236401714164547  | 0.223712782502512  | 0.249090645826582  occ= 0
MO #35  energy= 0.284145556930361  | 0.274575072589165  | 0.293716041271559  occ= 0
MO #36  energy= 0.28668681463224   | 0.274617349077115  | 0.298756264739312  occ= 0
MO #37  energy= 0.291371583920318  | 0.283960686491054  | 0.298782631066906  occ= 0
MO #38  energy= 0.394955072688646  | 0.377027856876184  | 0.412882407208403  occ= 0
MO #39  energy= 0.709181216027938  | 0.701619812306184  | 0.716742622771713  occ= 0
MO #40  energy= 0.709243596782017  | 0.701741927681051  | 0.716745257669435  occ= 0
MO #41  energy= 0.718642940644109  | 0.699930856900075  | 0.737355069043051  occ= 0
MO #42  energy= 0.746673575852364  | 0.713517137813026  | 0.77982984225561   occ= 0
MO #43  energy= 0.752861906773334  | 0.730815172146717  | 0.77490859371926   occ= 0
MO #44  energy= 0.771081262113762  | 0.753157509461561  | 0.789005014765967  occ= 0
MO #45  energy= 0.822631196879156  | 0.775722472924573  | 0.869539775910776  occ= 0
MO #46  energy= 0.823832649867721  | 0.77688042126533   | 0.870784849567282  occ= 0
MO #47  energy= 0.823992097329505  | 0.800361351902193  | 0.847622843444473  occ= 0
MO #48  energy= 0.824005199903363  | 0.800375052955853  | 0.847635346850877  occ= 0
MO #49  energy= 0.828317280638919  | 0.811623725656585  | 0.845010812229822  occ= 0
MO #50  energy= 0.901357785970023  | 0.89895455179944   | 0.903761020140611  occ= 0
MO #51  energy= 0.903723614197718  | 0.898636157110211  | 0.908811086104975  occ= 0
MO #52  energy= 0.960668156478975  | 0.95139986518996   | 0.969936460710017  occ= 0
MO #53  energy= 0.992842788663158  | 0.982353699866289  | 1.00333187871117   occ= 0
MO #54  energy= 0.994550045778469  | 0.989955500211128  | 0.999144591345814  occ= 0
MO #55  energy= 1.04869070691641   | 1.02767147306124   | 1.06970996308955   occ= 0
MO #56  energy= 1.04901067262619   | 1.02805533002364   | 1.06996604159828   occ= 0
MO #57  energy= 1.2376671453605    | 1.2093444028667    | 1.26598988785432   occ= 0
MO #58  energy= 1.23811207077069   | 1.19571284108723   | 1.2805112390116    occ= 0
MO #59  energy= 1.3409506638397    | 1.32734009056874   | 1.35456123196164   occ= 0
MO #60  energy= 1.76850973923861   | 1.75499950520717   | 1.78201998250507   occ= 0
MO #61  energy= 1.78969530436849   | 1.76863007769423   | 1.81076053104276   occ= 0
MO #62  energy= 1.79019116111734   | 1.75483835498157   | 1.82554397848313   occ= 0
MO #63  energy= 2.11795742710416   | 2.11594112441323   | 2.11997372976896   occ= 0
MO #64  energy= 2.11795772607029   | 2.11594083985819   | 2.11997461228239   occ= 0
MO #65  energy= 2.17392439686368   | 2.16847484252106   | 2.17937395253918   occ= 0
MO #66  energy= 2.17392771826638   | 2.16843933214692   | 2.17941610522608   occ= 0
MO #67  energy= 2.23006271198596   | 2.22032582857434   | 2.23979959626993   occ= 0
MO #68  energy= 2.28054622686937   | 2.27129886303843   | 2.28979359070032   occ= 0
MO #69  energy= 2.28624475114195   | 2.27264646851729   | 2.29984303464874   occ= 0
MO #70  energy= 2.39433406754515   | 2.39079995511737   | 2.39786817990933   occ= 0
MO #71  energy= 2.39434981957574   | 2.390826326084     | 2.39787331342626   occ= 0
MO #72  energy= 2.4636661495242    | 2.44748814792359   | 2.4798441463862    occ= 0
MO #73  energy= 2.54971977608711   | 2.52886742963551   | 2.57057212253871   occ= 0
MO #74  energy= 2.5569266062901    | 2.52724626911634   | 2.58660694325397   occ= 0
MO #75  energy= 2.72384154308616   | 2.70258233489865   | 2.7451007605952    occ= 0
MO #76  energy= 2.77677900282912   | 2.69343516071629   | 2.86012284494194   occ= 0
MO #77  energy= 2.77678703423831   | 2.69345442257391   | 2.8601196458935    occ= 0
MO #78  energy= 2.84856010978446   | 2.79120318077158   | 2.90591703999886   occ= 0
MO #79  energy= 2.8486879230198    | 2.79160743494428   | 2.90576841041922   occ= 0
MO #80  energy= 2.95895594997186   | 2.92637118759581   | 2.99154072044171   occ= 0
MO #81  energy= 3.05575603893751   | 3.00400966038407   | 3.10750240687718   occ= 0
MO #82  energy= 3.05585545607409   | 3.03496320108262   | 3.07674771106556   occ= 0
MO #83  energy= 3.31943238675492   | 3.28374162763454   | 3.35512314607639   occ= 0
MO #84  energy= 3.31943268145258   | 3.2837426492895    | 3.35512271383006   occ= 0
MO #85  energy= 3.37807502977266   | 3.35160943525884   | 3.40454062515175   occ= 0
MO #86  energy= 3.37808532888197   | 3.35159914276321   | 3.40457151500072   occ= 0
MO #87  energy= 3.46472376682713   | 3.44154526508275   | 3.48790224855925   occ= 0
MO #88  energy= 3.55221352961339   | 3.54509341912779   | 3.55933364009899   occ= 0
MO #89  energy= 3.5575992295058    | 3.54386728711937   | 3.5713311744645    occ= 0
MO #90  energy= 3.56029318662588   | 3.47901837451671   | 3.64156798690726   occ= 0
MO #91  energy= 3.56067147160485   | 3.47995527264269   | 3.64138766658334   occ= 0
MO #92  energy= 3.72048567408424   | 3.69988061291032   | 3.74109073627242   occ= 0
MO #93  energy= 3.72087705232528   | 3.699861828104     | 3.74189227705306   occ= 0
MO #94  energy= 3.78530568042494   | 3.76927392673421   | 3.80133742536826   occ= 0
MO #95  energy= 3.90758493740472   | 3.85564373668091   | 3.95952613880245   occ= 0
MO #96  energy= 3.90794789405722   | 3.88571231012778   | 3.93018347798667   occ= 0
MO #97  energy= 4.19501116342673   | 4.15476855717579   | 4.23525377187018   occ= 0
MO #98  energy= 4.32320770533877   | 4.31153293305829   | 4.33488247761927   occ= 0
MO #99  energy= 4.32393705081197   | 4.29240575039596   | 4.35546835032871   occ= 0
MO #100 energy= 5.37817014752795   | 5.3624437905628    | 5.39389650780099   occ= 0
MO #101 energy= 6.28913552306048   | 6.27495405502796   | 6.30331699083046   occ= 0
MO #102 energy= 6.54306998817092   | 6.54164927149446   | 6.54449070484736   occ= 0
MO #103 energy= 6.54307080849266   | 6.54164958623503   | 6.54449203075028   occ= 0
MO #104 energy= 6.64303810174147   | 6.64191535522318   | 6.64416084827331   occ= 0
MO #105 energy= 6.64307582089583   | 6.64194633504588   | 6.64420530675721   occ= 0
MO #106 energy= 6.73721529648543   | 6.73201848700264   | 6.7424121059682    occ= 0
MO #107 energy= 6.74579028006612   | 6.73747100692419   | 6.75410955318812   occ= 0
MO #108 energy= 7.12752184390634   | 7.12490930187325   | 7.13013438602511   occ= 0
MO #109 energy= 7.12752767658751   | 7.12490639938491   | 7.13014895384995   occ= 0
MO #110 energy= 7.22779923897825   | 7.21715272074258   | 7.23844575721393   occ= 0
MO #111 energy= 7.23788332412253   | 7.22311763368443   | 7.25264901420351   occ= 0
MO #112 energy= 7.63117504672248   | 7.59815018924153   | 7.66419990420343   occ= 0
MO #113 energy= 7.64786637254947   | 7.60191390016737   | 7.6938188456606    occ= 0
MO #114 energy= 7.67156528554046   | 7.66521839602796   | 7.67791217532903   occ= 0
MO #115 energy= 7.75158954353153   | 7.71943682505963   | 7.78374226242968   occ= 0
MO #116 energy= 8.72000018944176   | 8.62069112968289   | 8.81930924924915   occ= 0
MO #117 energy= 8.72000261374706   | 8.62071734199736   | 8.81928788549677   occ= 0
MO #118 energy= 8.74613565673013   | 8.66858635280115   | 8.82368496098656   occ= 0
MO #119 energy= 8.74615998751712   | 8.66916097166551   | 8.82315900338186   occ= 0
MO #120 energy= 9.00925012990779   | 8.96735710650943   | 9.05114315330619   occ= 0
MO #121 energy= 9.0206900833207    | 8.94551376907706   | 9.09586639871822   occ= 0
MO #122 energy= 9.1965333235341    | 9.16744555467415   | 9.22562109251697   occ= 0
MO #123 energy= 9.55935719320887   | 9.51672648480594   | 9.601987901611     occ= 0
MO #124 energy= 11.5417992620783   | 11.4762995331867   | 11.607298991088    occ= 0
MO #125 energy= 11.5417996936593   | 11.4763006385301   | 11.6072987489025   occ= 0
MO #126 energy= 11.5427484552953   | 11.4880969094132   | 11.5974000011774   occ= 0
MO #127 energy= 11.5427588353535   | 11.4880912215437   | 11.5974264501926   occ= 0
MO #128 energy= 11.6317776497592   | 11.5877209292586   | 11.6758343725767   occ= 0
MO #129 energy= 11.6336182990907   | 11.5866072299937   | 11.6806293697069   occ= 0
MO #130 energy= 11.73566788374     | 11.6944732541121   | 11.7768625156295   occ= 0
MO #131 energy= 11.7380425047609   | 11.705574498239    | 11.7705105112829   occ= 0
MO #132 energy= 11.7614392063808   | 11.7089272263335   | 11.813951187805    occ= 0
MO #133 energy= 13.5291209639862   | 13.5257021653294   | 13.5325397627226   occ= 0
 ** Mulliken pop on meta-lowdin orthogonal AOs  **
 ** Mulliken pop  **
pop of  0Cr 3s        1.99966
pop of  0Cr 4s        0.72134
pop of  0Cr 5s        0.01197
pop of  0Cr 6s        0.00435
pop of  0Cr 7s        0.00473
pop of  0Cr 8s        0.00221
pop of  0Cr 3px       1.99942
pop of  0Cr 3py       1.99954
pop of  0Cr 3pz       1.99786
pop of  0Cr 4px       0.01360
pop of  0Cr 4py       0.03208
pop of  0Cr 4pz       0.01882
pop of  0Cr 5px       0.00069
pop of  0Cr 5py       0.00139
pop of  0Cr 5pz       0.00269
pop of  0Cr 6px       0.00001
pop of  0Cr 6py       0.00002
pop of  0Cr 6pz       0.00036
pop of  0Cr 7px       0.00024
pop of  0Cr 7py       0.00052
pop of  0Cr 7pz       0.00216
pop of  0Cr 8px       0.00006
pop of  0Cr 8py       0.00015
pop of  0Cr 8pz       0.00016
pop of  0Cr 3dxy      0.99701
pop of  0Cr 3dyz      1.06339
pop of  0Cr 3dz^2     0.79611
pop of  0Cr 3dxz      0.30855
pop of  0Cr 3dx2-y2    0.98360
pop of  0Cr 4dxy      0.00189
pop of  0Cr 4dyz      0.00223
pop of  0Cr 4dz^2     0.00032
pop of  0Cr 4dxz      0.00292
pop of  0Cr 4dx2-y2    0.00203
pop of  0Cr 5dxy      0.00009
pop of  0Cr 5dyz      0.00004
pop of  0Cr 5dz^2     0.00111
pop of  0Cr 5dxz      0.00003
pop of  0Cr 5dx2-y2    0.00010
pop of  0Cr 6dxy      0.00048
pop of  0Cr 6dyz      0.00090
pop of  0Cr 6dz^2     0.00061
pop of  0Cr 6dxz      0.00048
pop of  0Cr 6dx2-y2    0.00049
pop of  0Cr 7dxy      0.00003
pop of  0Cr 7dyz      0.00005
pop of  0Cr 7dz^2     0.00015
pop of  0Cr 7dxz      0.00002
pop of  0Cr 7dx2-y2    0.00003
pop of  0Cr 4fy^3     0.00001
pop of  0Cr 4fxyz     0.00000
pop of  0Cr 4fyz^2    0.00006
pop of  0Cr 4fz^3     0.00009
pop of  0Cr 4fxz^2    0.00005
pop of  0Cr 4fzx^2    0.00001
pop of  0Cr 4fx^3     0.00001
pop of  0Cr 5fy^3     0.00001
pop of  0Cr 5fxyz     0.00009
pop of  0Cr 5fyz^2    0.00057
pop of  0Cr 5fz^3     0.00088
pop of  0Cr 5fxz^2    0.00060
pop of  0Cr 5fzx^2    0.00013
pop of  0Cr 5fx^3     0.00001
pop of  0Cr 6fy^3     0.00000
pop of  0Cr 6fxyz     0.00016
pop of  0Cr 6fyz^2    0.00027
pop of  0Cr 6fz^3     0.00216
pop of  0Cr 6fxz^2    0.00022
pop of  0Cr 6fzx^2    0.00020
pop of  0Cr 6fx^3     0.00000
pop of  0Cr 5g-4      0.00000
pop of  0Cr 5g-3      0.00000
pop of  0Cr 5g-2      0.00000
pop of  0Cr 5g-1      0.00001
pop of  0Cr 5g 0      0.00001
pop of  0Cr 5g 1      0.00001
pop of  0Cr 5g 2      0.00000
pop of  0Cr 5g 3      0.00000
pop of  0Cr 5g 4      0.00000
pop of  0Cr 6g-4      0.00000
pop of  0Cr 6g-3      0.00000
pop of  0Cr 6g-2      0.00000
pop of  0Cr 6g-1      0.00011
pop of  0Cr 6g 0      0.00018
pop of  0Cr 6g 1      0.00005
pop of  0Cr 6g 2      0.00000
pop of  0Cr 6g 3      0.00000
pop of  0Cr 6g 4      0.00000
pop of  1O 2s        1.87870
pop of  1O 3s        0.00073
pop of  1O 4s        0.00147
pop of  1O 5s        0.00648
pop of  1O 2px       1.65130
pop of  1O 2py       1.86346
pop of  1O 2pz       1.54673
pop of  1O 3px       0.00000
pop of  1O 3py       0.00002
pop of  1O 3pz       0.00023
pop of  1O 4px       0.00707
pop of  1O 4py       0.01366
pop of  1O 4pz       0.00175
pop of  1O 5px       0.00448
pop of  1O 5py       0.00960
pop of  1O 5pz       0.00368
pop of  1O 3dxy      0.00000
pop of  1O 3dyz      0.00027
pop of  1O 3dz^2     0.00050
pop of  1O 3dxz      0.00039
pop of  1O 3dx2-y2    0.00000
pop of  1O 4dxy      0.00000
pop of  1O 4dyz      0.00253
pop of  1O 4dz^2     0.00269
pop of  1O 4dxz      0.00332
pop of  1O 4dx2-y2    0.00000
pop of  1O 5dxy      0.00018
pop of  1O 5dyz      0.00847
pop of  1O 5dz^2     0.00211
pop of  1O 5dxz      0.00606
pop of  1O 5dx2-y2    0.00019
pop of  1O 4fy^3     0.00000
pop of  1O 4fxyz     0.00000
pop of  1O 4fyz^2    0.00007
pop of  1O 4fz^3     0.00010
pop of  1O 4fxz^2    0.00008
pop of  1O 4fzx^2    0.00000
pop of  1O 4fx^3     0.00000
pop of  1O 5fy^3     0.00000
pop of  1O 5fxyz     0.00006
pop of  1O 5fyz^2    0.00054
pop of  1O 5fz^3     0.00006
pop of  1O 5fxz^2    0.00032
pop of  1O 5fzx^2    0.00006
pop of  1O 5fx^3     0.00000
 ** Mulliken atomic charges  **
charge of  0Cr =      1.01740
charge of  1O =     -1.01740

******** <class 'pyscf.mcscf.mc1step.CASSCF'> flags ********
CAS (7e+3e, 9o), ncore = 5, nvir = 119
max_cycle_macro = 50
max_cycle_micro = 4
conv_tol = 1e-07
conv_tol_grad = None
orbital rotation max_stepsize = 0.02
augmented hessian ah_max_cycle = 30
augmented hessian ah_conv_tol = 1e-12
augmented hessian ah_linear dependence = 1e-14
augmented hessian ah_level shift = 0
augmented hessian ah_start_tol = 2.5
augmented hessian ah_start_cycle = 3
augmented hessian ah_grad_trust_region = 3
kf_trust_region = 3
kf_interval = 4
ci_response_space = 4
ci_grad_trust_region = 3
with_dep4 0
natorb = False
canonicalization = True
chkfile = ./scratch/156240/tmp7nVybx
max_memory 4000 MB (current use 591 MB)
internal_rotation = False

******** SHCI flags ********
executable             = /home/bamu3429/softwares/dice/Dice
mpiprefix              = mpirun -np 28
scratchDirectory       = ./scratch/156240
integralFile           = ./FCIDUMP
configFile             = ./input.dat
outputFile             = ./output.dat
maxIter                = 6
sweep_iter             = []
sweep_epsilon          = []
nPTiter                = 0
Stochastic             = True
fullrestart            = False
restart                = False
num_thrds              = 12
memory                 = None

CASCI E = -101.843382440539  S^2 = 6.0000000
Set conv_tol_grad to 0.000316228
macro iter 1 (21 JK  4 micro), CASSCF E = -101.873301004776  dE = -0.029918564  S^2 = 6.0000000
               |grad[o]|=0.00685  |grad[c]|= None  |ddm|=0.138
macro iter 2 (21 JK  4 micro), CASSCF E = -101.910265754454  dE = -0.03696475  S^2 = 6.0000000
               |grad[o]|=0.104  |grad[c]|= None  |ddm|=0.144
macro iter 3 (21 JK  4 micro), CASSCF E = -101.935432188769  dE = -0.025166434  S^2 = 6.0000000
               |grad[o]|=0.0956  |grad[c]|= None  |ddm|=0.0497
macro iter 4 (21 JK  4 micro), CASSCF E = -101.960451662022  dE = -0.025019473  S^2 = 6.0000000
               |grad[o]|=0.083  |grad[c]|= None  |ddm|=0.0949
macro iter 5 (18 JK  4 micro), CASSCF E = -101.971947918891  dE = -0.011496257  S^2 = 6.0000000
               |grad[o]|=0.073  |grad[c]|= None  |ddm|=0.165
macro iter 6 (10 JK  4 micro), CASSCF E = -101.972198837962  dE = -0.00025091907  S^2 = 6.0000000
               |grad[o]|=0.0144  |grad[c]|= None  |ddm|=0.0352
macro iter 7 (10 JK  4 micro), CASSCF E = -101.972200829722  dE = -1.9917595e-06  S^2 = 6.0000000
               |grad[o]|=0.00101  |grad[c]|= None  |ddm|=0.00325
macro iter 8 (3 JK  1 micro), CASSCF E = -101.972200845997  dE = -1.6275848e-08  S^2 = 6.0000000
               |grad[o]|=0.000107  |grad[c]|= None  |ddm|=0.000133
1-step CASSCF converged in 8 macro (125 JK 29 micro) steps
CASSCF canonicalization
CASSCF energy = -101.972200845997


--------------------------------------------------
                 ICMPSPT CALCULATION              
--------------------------------------------------

Perturbation type: MRLCC
With fully internally contracted scheme
With third order correction

Preparing necessary RDMs
......production of RDMs took      44.19 sec
Reading binary 4RDM from DICE
......reading the RDM took         28.42 sec

(GOOD) Trace 4RDM:   5040.0 =   10*    9*    8*    7
(GOOD) Trace 3RDM:    720.0 =   10*    9*    8
(GOOD) Trace 2RDM:     90.0 =   10*    9
(GOOD) Trace 1RDM:     10.0 =   10

Producing the integrals
......production of INT took     156.26 sec

Energy_core =  -104.446291524
Energy      =  -101.972200846

WARNING: Have to use natural orbitals from CAASCF
         offdiagonal elements: 0.692842358063

Basic ingredients written to int/
......savings of INGREDIENTS took      39.34 sec

Second-order:
perturber CCVV --        -0.110790313
perturber CCAV --        -0.057813294
perturber ACVV --        -0.184401716
perturber CCAA --        -0.040944911
perturber AAVV --        -0.182723591
perturber CAAV --        -0.148185890
perturber AAAV --        -0.061905973
perturber AAAC --        -0.004567554
Total:                   -0.791333243

Third-order:              0.002675496

Total PT       --        -0.788657746

