 &FCI NORB=9 ,NELEC=10 ,MS2=4,
  ORBSYM=1,1,1,1,1,1,1,1,1,
  ISYM=1,
 &END
  6.328536608275e-01    1  1  1  1
  2.938280786175e-02    2  1  2  1
  5.874011469605e-01    2  2  1  1
  1.814436444880e-12    2  2  2  1
  6.783729672096e-01    2  2  2  2
  2.909588973832e-02    3  1  3  1
  2.985107184760e-02    3  2  3  2
  5.818655472785e-01    3  3  1  1
  1.164956639848e-12    3  3  2  1
  6.024211024119e-01    3  3  2  2
  6.492392070891e-01    3  3  3  3
 -3.842388359713e-03    4  1  1  1
 -1.745846265921e-02    4  1  2  2
 -1.260187972262e-02    4  1  3  3
  2.002044156223e-02    4  1  4  1
 -1.471076976405e-12    4  2  1  1
 -2.237294036563e-03    4  2  2  1
 -2.408011823924e-12    4  2  2  2
 -1.742261087342e-12    4  2  3  3
  2.319612740943e-03    4  2  4  2
 -4.694452403010e-03    4  3  3  1
  4.728753364296e-03    4  3  4  3
  3.852059216899e-01    4  4  1  1
 -3.266879430906e-12    4  4  2  1
  3.120700697672e-01    4  4  2  2
  3.389755697810e-01    4  4  3  3
  6.486886080852e-02    4  4  4  1
  1.494364924730e-12    4  4  4  2
  6.396181333432e-01    4  4  4  4
 -8.952767011849e-05    5  1  3  2
  8.456777292055e-03    5  1  5  1
 -1.536351258467e-03    5  2  3  1
  1.760114436431e-03    5  2  4  3
  3.090301233740e-03    5  2  5  2
 -1.701653559478e-03    5  3  2  1
 -8.823314176727e-04    5  3  4  2
  4.350471496615e-03    5  3  5  3
  1.648439073854e-03    5  4  3  2
  5.658389771458e-03    5  4  5  1
  1.873906187617e-02    5  4  5  4
  4.053930900210e-01    5  5  1  1
 -3.972351008652e-12    5  5  2  1
  3.264383893059e-01    5  5  2  2
  3.509523392482e-01    5  5  3  3
  6.537357953623e-02    5  5  4  1
  1.557248897719e-12    5  5  4  2
  6.677133898175e-01    5  5  4  4
  7.800408044099e-01    5  5  5  5
  1.642097918403e-02    6  1  1  1
 -1.322276867715e-12    6  1  2  1
  1.813927063483e-03    6  1  2  2
  6.039060158759e-03    6  1  3  3
  9.730340559735e-03    6  1  4  1
  5.546231222692e-02    6  1  4  4
  6.900319433037e-02    6  1  5  5
  1.710686854971e-02    6  1  6  1
 -5.521250850834e-12    6  2  1  1
 -2.683566117996e-03    6  2  2  1
 -9.858384271280e-12    6  2  2  2
 -7.408939556295e-12    6  2  3  3
  2.012261865727e-12    6  2  4  1
 -4.344241082066e-04    6  2  4  2
  7.767867279429e-12    6  2  4  4
  1.443271021241e-03    6  2  5  3
  9.615964661899e-12    6  2  5  5
  1.686231847440e-12    6  2  6  1
  2.833790974112e-03    6  2  6  2
 -7.263757988889e-04    6  3  3  1
 -5.959284770343e-04    6  3  4  3
 -5.730759903673e-04    6  3  5  2
  2.519916260926e-03    6  3  6  3
 -4.066524330370e-02    6  4  1  1
  1.190188650793e-12    6  4  2  1
 -2.681383649193e-02    6  4  2  2
 -3.028277032365e-02    6  4  3  3
 -1.200837693647e-02    6  4  4  1
 -1.059892533181e-01    6  4  4  4
 -1.250187926297e-01    6  4  5  5
 -1.514554010926e-02    6  4  6  1
 -2.256134118527e-12    6  4  6  2
  4.529634804328e-02    6  4  6  4
  2.001085979684e-03    6  5  3  2
  5.850582646443e-03    6  5  5  1
  1.739496487951e-03    6  5  5  4
  1.712383168629e-02    6  5  6  5
  3.318238926599e-01    6  6  1  1
 -2.716402931654e-12    6  6  2  1
  2.797323877434e-01    6  6  2  2
  2.916267084531e-01    6  6  3  3
  3.749593162386e-02    6  6  4  1
  4.919239020087e-01    6  6  4  4
  5.442111286253e-01    6  6  5  5
  4.811899621371e-02    6  6  6  1
  7.344983048808e-12    6  6  6  2
 -7.689308567603e-02    6  6  6  4
  4.528266565656e-01    6  6  6  6
 -4.452093237431e-12    7  1  1  1
 -3.454968894026e-03    7  1  2  1
 -2.790578539844e-12    7  1  2  2
 -2.913213996450e-12    7  1  3  3
 -1.088779455693e-12    7  1  4  1
  2.297271663169e-03    7  1  4  2
 -8.157193585970e-12    7  1  4  4
 -1.860798561579e-03    7  1  5  3
 -9.972811911703e-12    7  1  5  5
 -1.098424633220e-12    7  1  6  1
 -4.717432550604e-04    7  1  6  2
  2.548519467506e-12    7  1  6  4
 -6.645383793562e-12    7  1  6  6
  7.990519527219e-03    7  1  7  1
 -3.989067849758e-02    7  2  1  1
 -1.400748866151e-12    7  2  2  1
 -8.228004113823e-02    7  2  2  2
 -5.951361448146e-02    7  2  3  3
  1.981758335009e-02    7  2  4  1
  7.719433896850e-02    7  2  4  4
  9.164059148322e-02    7  2  5  5
  1.784267029617e-02    7  2  6  1
  4.967567271842e-12    7  2  6  2
 -1.895941298679e-02    7  2  6  4
  6.391762816396e-02    7  2  6  6
 -2.223885662153e-12    7  2  7  1
  4.661952759213e-02    7  2  7  2
 -5.656535423712e-03    7  3  3  2
  2.036688415659e-03    7  3  5  1
  2.221355176434e-03    7  3  5  4
  2.581541131495e-03    7  3  6  5
  4.911371865560e-03    7  3  7  3
  9.012932250513e-12    7  4  1  1
  4.071043102755e-03    7  4  2  1
  5.809648534912e-12    7  4  2  2
  6.031706891410e-12    7  4  3  3
  1.904327593695e-12    7  4  4  1
  5.413061316821e-03    7  4  4  2
  1.843615948542e-11    7  4  4  4
 -4.321333017122e-03    7  4  5  3
  2.067446317055e-11    7  4  5  5
  3.742397886360e-12    7  4  6  1
 -2.179305056671e-03    7  4  6  2
 -3.260380873397e-12    7  4  6  4
  1.201145774849e-11    7  4  6  6
  3.473315771322e-03    7  4  7  1
  3.395840143304e-12    7  4  7  2
  2.759568939986e-02    7  4  7  4
 -2.971596745957e-03    7  5  3  1
  2.960364128432e-03    7  5  4  3
  6.241315925933e-03    7  5  5  2
 -2.865462257319e-03    7  5  6  3
  1.565085293613e-12    7  5  6  5
  2.891283106961e-02    7  5  7  5
  1.652569258856e-11    7  6  1  1
  5.544556983711e-06    7  6  2  1
  1.245522543750e-11    7  6  2  2
  1.281707347653e-11    7  6  3  3
  3.637237816574e-12    7  6  4  1
 -1.982236000635e-03    7  6  4  2
  2.492517917806e-11    7  6  4  4
  1.854347038910e-03    7  6  5  3
  3.014185562603e-11    7  6  5  5
  4.522187359083e-12    7  6  6  1
  2.566415322131e-03    7  6  6  2
 -7.086223939818e-12    7  6  6  4
  2.158751758361e-11    7  6  6  6
 -8.349930619538e-05    7  6  7  1
  5.185353451279e-12    7  6  7  2
 -7.614818938438e-03    7  6  7  4
  1.666873518087e-02    7  6  7  6
  4.326082894213e-01    7  7  1  1
 -4.324703145011e-12    7  7  2  1
  3.595466242894e-01    7  7  2  2
  3.720302136526e-01    7  7  3  3
  5.817854900370e-02    7  7  4  1
  1.652191927724e-12    7  7  4  2
  6.281528742682e-01    7  7  4  4
  7.025301150212e-01    7  7  5  5
  7.289438998193e-02    7  7  6  1
  9.000609752096e-12    7  7  6  2
 -1.074952484929e-01    7  7  6  4
  5.365975216937e-01    7  7  6  6
 -1.053382560090e-11    7  7  7  1
  9.209938552446e-02    7  7  7  2
  2.195622246084e-11    7  7  7  4
  3.251601283510e-11    7  7  7  6
  7.444623590537e-01    7  7  7  7
  1.412805621010e-01    8  1  1  1
  2.360674948708e-12    8  1  2  1
  1.652784226939e-01    8  1  2  2
  1.493647736903e-01    8  1  3  3
 -3.823230857499e-02    8  1  4  1
 -1.415610926489e-12    8  1  4  2
 -1.098680059810e-01    8  1  4  4
 -1.276000465880e-01    8  1  5  5
 -2.895063669142e-02    8  1  6  1
 -7.952462062648e-12    8  1  6  2
  2.474668859168e-02    8  1  6  4
 -8.953327118907e-02    8  1  6  6
  3.015290508672e-12    8  1  7  1
 -7.130578546209e-02    8  1  7  2
 -4.264596844028e-12    8  1  7  4
 -5.467456075986e-12    8  1  7  6
 -1.143592437503e-01    8  1  7  7
  1.573976355680e-01    8  1  8  1
 -2.532464152267e-12    8  2  1  1
  1.431671913158e-02    8  2  2  1
 -5.616272422833e-12    8  2  2  2
 -4.138952491577e-12    8  2  3  3
  1.425277665985e-12    8  2  4  1
 -1.455851890342e-03    8  2  4  2
  5.057042916100e-12    8  2  4  4
 -8.454932471849e-04    8  2  5  3
  5.703588279390e-12    8  2  5  5
 -2.200912847471e-03    8  2  6  2
 -1.036540636014e-12    8  2  6  4
  4.044177022868e-12    8  2  6  6
 -3.112770466631e-03    8  2  7  1
  2.988319810127e-12    8  2  7  2
 -5.468414222656e-04    8  2  7  4
 -3.042097477891e-04    8  2  7  6
  5.966516217216e-12    8  2  7  7
 -5.101587827839e-12    8  2  8  1
  1.284831455444e-02    8  2  8  2
  1.318618762423e-02    8  3  3  1
 -2.351506536430e-03    8  3  4  3
 -4.696284065487e-04    8  3  5  2
 -1.546097889718e-03    8  3  6  3
  2.233836947278e-03    8  3  7  5
  1.286847917876e-02    8  3  8  3
 -6.602040519496e-02    8  4  1  1
 -4.979995260159e-02    8  4  2  2
 -5.335063128018e-02    8  4  3  3
 -1.817078862887e-02    8  4  4  1
 -7.354735723259e-02    8  4  4  4
 -7.352360159161e-02    8  4  5  5
 -9.103882182671e-03    8  4  6  1
  1.216669068962e-02    8  4  6  4
 -3.936026364846e-02    8  4  6  6
  1.745052286191e-12    8  4  7  1
 -5.639915223417e-03    8  4  7  2
 -2.570788514980e-12    8  4  7  4
 -6.021227071307e-12    8  4  7  6
 -7.728256340403e-02    8  4  7  7
  3.295775096752e-03    8  4  8  1
  3.513906045084e-02    8  4  8  4
 -9.485562969003e-04    8  5  3  2
 -1.171323076393e-02    8  5  5  1
 -6.368277900355e-03    8  5  5  4
 -8.645651352617e-03    8  5  6  5
 -2.789511154855e-03    8  5  7  3
  1.518605312533e-12    8  5  7  5
  1.796931072416e-02    8  5  8  5
 -8.329845271665e-02    8  6  1  1
 -6.023375196288e-02    8  6  2  2
 -6.390583315761e-02    8  6  3  3
 -1.420721077412e-02    8  6  4  1
 -1.139752482927e-01    8  6  4  4
 -1.389402909838e-01    8  6  5  5
 -2.841654035077e-02    8  6  6  1
 -1.734138940311e-12    8  6  6  2
  3.347664311079e-02    8  6  6  4
 -9.157834999162e-02    8  6  6  6
  3.153319677802e-12    8  6  7  1
 -2.015236311404e-02    8  6  7  2
 -7.897947141540e-12    8  6  7  4
 -9.688012164581e-12    8  6  7  6
 -1.476084796816e-01    8  6  7  7
  2.269767125380e-02    8  6  8  1
 -1.304341917971e-12    8  6  8  2
  2.588695562861e-02    8  6  8  4
  6.105361526805e-02    8  6  8  6
  1.299623442866e-11    8  7  1  1
 -6.374453085623e-03    8  7  2  1
  9.760082582347e-12    8  7  2  2
  1.005489918339e-11    8  7  3  3
  2.695807165613e-12    8  7  4  1
 -9.606400189375e-04    8  7  4  2
  1.875757529834e-11    8  7  4  4
  1.736014279713e-03    8  7  5  3
  2.302345348829e-11    8  7  5  5
  3.560594158754e-12    8  7  6  1
 -1.741213318065e-04    8  7  6  2
 -6.137565903464e-12    8  7  6  4
  1.505336188744e-11    8  7  6  6
 -5.723306897906e-03    8  7  7  1
  3.904910403202e-12    8  7  7  2
 -6.912290020742e-03    8  7  7  4
  1.874633354863e-04    8  7  7  6
  2.528197740246e-11    8  7  7  7
 -4.447693350704e-12    8  7  8  1
 -4.965358590770e-04    8  7  8  2
 -4.520314009331e-12    8  7  8  4
 -7.502618753410e-12    8  7  8  6
  1.376842488505e-02    8  7  8  7
  4.767497144466e-01    8  8  1  1
 -2.791580533830e-12    8  8  2  1
  4.134385176794e-01    8  8  2  2
  4.237842772966e-01    8  8  3  3
  3.104181904115e-02    8  8  4  1
  4.940692026538e-01    8  8  4  4
  5.316547850909e-01    8  8  5  5
  4.279122752952e-02    8  8  6  1
  2.496807483892e-12    8  8  6  2
 -6.339059956441e-02    8  8  6  4
  4.250772460959e-01    8  8  6  6
 -7.270699970934e-12    8  8  7  1
  3.038415788950e-02    8  8  7  2
  1.283924500456e-11    8  8  7  4
  2.192372353997e-11    8  8  7  6
  5.493438748855e-01    8  8  7  7
 -1.416897256031e-02    8  8  8  1
  2.224752826567e-12    8  8  8  2
 -6.766219179869e-02    8  8  8  4
 -1.051664069793e-01    8  8  8  6
  1.784690577881e-11    8  8  8  7
  5.026367841934e-01    8  8  8  8
  7.561499903661e-03    9  1  3  1
 -7.540784144744e-05    9  1  4  3
  1.654042047492e-03    9  1  5  2
 -1.982565816247e-03    9  1  6  3
  2.299986524028e-03    9  1  7  5
  7.675973870695e-03    9  1  8  3
  1.106578050114e-02    9  1  9  1
  1.181297405688e-02    9  2  3  2
 -1.268339308967e-03    9  2  5  1
 -1.611912081036e-03    9  2  5  4
 -1.865571443731e-03    9  2  6  5
 -5.548720012126e-03    9  2  7  3
  1.887366510539e-03    9  2  8  5
  8.192690642906e-03    9  2  9  2
  8.826851214197e-02    9  3  1  1
  2.289294005477e-12    9  3  2  1
  1.319095776975e-01    9  3  2  2
  1.384769964774e-01    9  3  3  3
 -3.401620637954e-02    9  3  4  1
 -1.353496066114e-12    9  3  4  2
 -1.152780572492e-01    9  3  4  4
 -1.296079574603e-01    9  3  5  5
 -2.447269494607e-02    9  3  6  1
 -7.132548050441e-12    9  3  6  2
  2.611982636432e-02    9  3  6  4
 -8.365319563797e-02    9  3  6  6
  2.554444331335e-12    9  3  7  1
 -6.401730547124e-02    9  3  7  2
 -3.840860497926e-12    9  3  7  4
 -5.743105222114e-12    9  3  7  6
 -1.111837587708e-01    9  3  7  7
  1.191326780021e-01    9  3  8  1
 -4.259042539224e-12    9  3  8  2
  8.960327073264e-03    9  3  8  4
  2.315216903528e-02    9  3  8  6
 -4.386020712310e-12    9  3  8  7
 -2.646538967803e-02    9  3  8  8
  1.253003309134e-01    9  3  9  3
  4.289834036435e-04    9  4  3  1
 -6.810187187945e-03    9  4  4  3
 -2.030341169528e-03    9  4  5  2
  2.386329034345e-03    9  4  6  3
 -1.435950508725e-12    9  4  6  5
 -7.019925694230e-03    9  4  7  5
 -1.562762579356e-03    9  4  8  3
 -6.788223082837e-04    9  4  9  1
  1.676041675873e-02    9  4  9  4
  2.905547430683e-03    9  5  2  1
  2.403204000966e-03    9  5  4  2
  1.523922764989e-12    9  5  4  4
 -9.447850867866e-03    9  5  5  3
 -1.828401504026e-03    9  5  6  2
  1.421710206278e-12    9  5  6  4
 -1.397652534187e-12    9  5  6  6
  2.319955143907e-03    9  5  7  1
  1.220061951156e-02    9  5  7  4
 -4.992165979290e-03    9  5  7  6
 -2.663407349885e-04    9  5  8  2
 -4.683681280986e-03    9  5  8  7
  2.538350678538e-02    9  5  9  5
 -3.196776546139e-03    9  6  3  1
  2.970272099560e-03    9  6  4  3
  2.110854169919e-03    9  6  5  2
 -5.684332949736e-03    9  6  6  3
  8.847951418952e-03    9  6  7  5
  1.886880396992e-03    9  6  8  3
  1.204159469151e-12    9  6  8  5
  2.788324556537e-03    9  6  9  1
 -7.448377184646e-03    9  6  9  4
  1.619623596439e-02    9  6  9  6
 -7.043962403117e-03    9  7  3  2
 -6.600370413457e-03    9  7  5  1
 -6.193236953496e-03    9  7  5  4
 -7.174644793347e-03    9  7  6  5
 -7.345824804844e-03    9  7  7  3
  8.533933097225e-03    9  7  8  5
  3.568360042578e-03    9  7  9  2
  1.493957053056e-12    9  7  9  4
  1.610458383256e-12    9  7  9  6
  2.441821666846e-02    9  7  9  7
  1.198479807520e-02    9  8  3  1
 -2.386227521563e-03    9  8  4  3
 -1.409499534291e-03    9  8  5  2
  1.929485936230e-03    9  8  6  3
 -1.064001005382e-12    9  8  6  5
 -7.373964418629e-03    9  8  7  5
  1.257020115268e-03    9  8  8  3
 -2.345923325321e-03    9  8  9  1
  1.772534110791e-03    9  8  9  4
 -8.343355454362e-03    9  8  9  6
  1.608975825074e-02    9  8  9  8
  4.797969090911e-01    9  9  1  1
 -3.409487986539e-12    9  9  2  1
  4.155337884326e-01    9  9  2  2
  4.546584896613e-01    9  9  3  3
  5.539876281095e-02    9  9  4  1
  6.053350740517e-01    9  9  4  4
  6.522505887280e-01    9  9  5  5
  5.540441015236e-02    9  9  6  1
  4.977469777945e-12    9  9  6  2
 -9.310019716994e-02    9  9  6  4
  4.841332186732e-01    9  9  6  6
 -9.092014636207e-12    9  9  7  1
  5.423890181549e-02    9  9  7  2
  1.623132127518e-11    9  9  7  4
  2.838112947503e-11    9  9  7  6
  6.439540399143e-01    9  9  7  7
 -5.839550878525e-02    9  9  8  1
  3.818897314946e-12    9  9  8  2
 -8.810189595706e-02    9  9  8  4
 -1.281663913813e-01    9  9  8  6
  2.194903517493e-11    9  9  8  7
  5.368112957432e-01    9  9  8  8
 -7.299945718368e-02    9  9  9  3
  6.694296756808e-01    9  9  9  9
 -4.828324090266e+00    1  1  0  0
  1.054735914415e-11    2  1  0  0
 -4.611360967196e+00    2  2  0  0
 -4.647060672956e+00    3  3  0  0
 -1.829631761817e-01    4  1  0  0
 -4.269586940998e+00    4  4  0  0
 -4.585642146881e+00    5  5  0  0
 -2.906693862278e-01    6  1  0  0
 -3.810426771684e-12    6  2  0  0
  5.370835035772e-01    6  4  0  0
 -3.678224933078e+00    6  6  0  0
  4.935887556321e-11    7  1  0  0
 -7.994080558257e-02    7  2  0  0
 -9.750822045791e-11    7  4  0  0
 -1.617312456962e-10    7  6  0  0
 -4.602209436863e+00    7  7  0  0
 -2.717212619599e-01    8  1  0  0
  4.818540055588e-01    8  4  0  0
  7.616312951509e-01    8  6  0  0
 -1.265800874055e-10    8  7  0  0
 -4.118879980585e+00    8  8  0  0
 -7.870444648791e-02    9  3  0  0
  1.155938310151e-12    9  5  0  0
  2.146588932201e-12    9  6  0  0
  1.392123189587e-12    9  8  0  0
 -4.667579039673e+00    9  9  0  0
    -77.026671473691   0  0  0  0
