#INFO: **** input file is /projects/bamu3429/BENCHMARK/fresh_atoms/MRPT/vtz/monoxides/CrO/mrpt.py ****
import json
from pyscf import gto,scf,mcscf, fci, lo, ci, cc
from pyscf.scf import ROHF, UHF,ROKS
import numpy as np
import pandas as pd

# THIS IS WERE IT STARTS ====================================

df=json.load(open("../../../trail.json"))

spins={'ScO':1, 'TiO':2, 'VO':3, 'CrO':4, 'MnO':5, 'FeO':4, 'CuO':1}

nd={'Sc':(1,0), 'Ti':(2,0), 'V':(3,0), 'Cr':(5,0), 'Mn':(5,0), 'Fe':(5,1), 'Cu':(5,4)}

cas={'Sc':3, 'Ti':4, 'V':5, 'Cr':6, 'Mn':7, 'Fe':8, 'Cu':11}

re={'ScO':1.668, 'TiO':1.623, 'VO':1.591, 'CrO':1.621, 'MnO':1.648, 'FeO':1.616, 'CuO':1.725}

datacsv={}
for nm in ['basis','charge','method','molecule','pseudopotential',
           'totalenergy','totalenergy-stocherr','totalenergy-syserr']:
  datacsv[nm]=[]

basis='vtz'
element='Cr'

mol=gto.Mole()
mol.ecp={}
mol.basis={}
for el in [element,'O']:
  mol.ecp[el]=gto.basis.parse_ecp(df[el]['ecp'])
  mol.basis[el]=gto.basis.parse(df[el][basis])
mol.charge=0
mol.spin=spins[element+'O']
mol.build(atom="%s 0. 0. 0.; O 0. 0. %g"%(element,re[element+'O']),verbose=4)

m=ROHF(mol)
m.level_shift=1000.0
dm=m.from_chk("../../../../HF/monoxides/"+element+basis+"0.chk")
hf=m.kernel(dm)
m.analyze()

from pyscf.shciscf import shci
mc = shci.SHCISCF(m, 9, 4+cas[element])
#mc.fcisolver.conv_tol = 1e-14
mc.fcisolver.mpiprefix="srun -n20"
mc.fcisolver.num_thrds=12
mc.verbose = 4
cas=mc.kernel()[0]
 
from pyscf.icmpspt import icmpspt
pt=icmpspt.icmpspt(mc,rdmM=500, PTM=1000,\
                          pttype="MRLCC",\
                          third_order=True,\
                          fully_ic=True,\
                          do_dm4=True)

datacsv['basis'].append(basis)
datacsv['charge'].append(0)
datacsv['method'].append('MRPT')
datacsv['molecule'].append(element)
datacsv['pseudopotential'].append('trail')
datacsv['totalenergy'].append(cas+pt)
datacsv['totalenergy-stocherr'].append(0.0)
datacsv['totalenergy-syserr'].append(0.0)
pd.DataFrame(datacsv).to_csv(element+".csv",index=False)

#INFO: ******************** input file end ********************


System: ('Linux', 'bnode0302.rc.int.colorado.edu', '3.10.0-514.41.1.el7.x86_64', '#1 SMP Wed Jan 17 10:26:16 EST 2018', 'x86_64', 'x86_64')  Threads 28
Python 2.7.11 (default, Mar 22 2016, 01:42:54) 
[GCC Intel(R) C++ gcc 4.8 mode]
numpy 1.11.1  scipy 0.17.1
Date: Wed Apr 18 17:50:36 2018
PySCF version 1.4.6
PySCF path  /projects/bamu3429/softwares/pyscf_uptodate/pyscf
GIT ORIG_HEAD f3591ef22170896a4cdc2aadaa6f5da388ffcadb
GIT HEAD      ref: refs/heads/master
GIT master branch  1847583fb1d2472321833d3c71c8b7008e5fabf5

[INPUT] VERBOSE 4
[INPUT] num atoms = 2
[INPUT] num electrons = 20
[INPUT] charge = 0
[INPUT] spin (= nelec alpha-beta = 2S) = 4
[INPUT] symmetry False subgroup None
[INPUT]  1 Cr     0.000000000000   0.000000000000   0.000000000000 AA    0.000000000000   0.000000000000   0.000000000000 Bohr
[INPUT]  2 O      0.000000000000   0.000000000000   1.621000000000 AA    0.000000000000   0.000000000000   3.063246047920 Bohr
[INPUT] ---------------- BASIS SET ---------------- 
[INPUT] l, kappa, [nprim/nctr], expnt,             c_1 c_2 ...
[INPUT] Cr
[INPUT] 0    0    [12   /1   ]  41.45590127       0.010332
                                22.20089455       -0.091393
                                12.37022616       0.412444
                                7.15443966        -0.722409
                                3.63012556        0.039693
                                1.88942247        0.321055
                                1.04381355        0.652182
                                0.47307333        0.264443
                                0.22628807        -0.008646
                                0.10750747        0.012188
                                0.05101028        -0.00242
                                0.0242372         0.001733
[INPUT] 0    0    [12   /1   ]  41.45590127       -0.001971
                                22.20089455       0.019152
                                12.37022616       -0.094562
                                7.15443966        0.178991
                                3.63012556        -0.015716
                                1.88942247        -0.084882
                                1.04381355        -0.243744
                                0.47307333        -0.214624
                                0.22628807        0.055092
                                0.10750747        0.415903
                                0.05101028        0.543473
                                0.0242372         0.170131
[INPUT] 0    0    [12   /1   ]  41.45590127       -0.005985
                                22.20089455       0.069637
                                12.37022616       -0.403654
                                7.15443966        0.899468
                                3.63012556        -0.19655
                                1.88942247        -1.358682
                                1.04381355        -0.066602
                                0.47307333        0.748011
                                0.22628807        0.743168
                                0.10750747        0.120335
                                0.05101028        -0.554574
                                0.0242372         -0.284337
[INPUT] 0    0    [12   /1   ]  41.45590127       -0.005431
                                22.20089455       0.075825
                                12.37022616       -0.506871
                                7.15443966        1.314927
                                3.63012556        -0.7377
                                1.88942247        -2.271634
                                1.04381355        1.711851
                                0.47307333        1.720924
                                0.22628807        -1.434003
                                0.10750747        -1.046849
                                0.05101028        0.595081
                                0.0242372         0.606245
[INPUT] 0    0    [1    /1   ]  0.0242372            1
[INPUT] 0    0    [1    /1   ]  0.01151614           1
[INPUT] 1    0    [12   /1   ]  28.88080716       -0.002973
                                13.19380569       0.044202
                                7.25722596        -0.232476
                                4.84342676        0.167654
                                2.76949909        0.179744
                                1.50719356        0.46058
                                0.72516508        0.338218
                                0.36385743        0.097984
                                0.16204617        0.012145
                                0.07447705        -0.000948
                                0.03422994        0.000821
                                0.01573221        -0.00022
[INPUT] 1    0    [12   /1   ]  28.88080716       0.000536
                                13.19380569       -0.009363
                                7.25722596        0.054752
                                4.84342676        -0.042977
                                2.76949909        -0.049244
                                1.50719356        -0.128712
                                0.72516508        -0.11682
                                0.36385743        0.044517
                                0.16204617        0.322192
                                0.07447705        0.482878
                                0.03422994        0.275764
                                0.01573221        0.025472
[INPUT] 1    0    [12   /1   ]  28.88080716       -0.000428
                                13.19380569       0.034429
                                7.25722596        -0.307446
                                4.84342676        0.24996
                                2.76949909        0.789151
                                1.50719356        0.129313
                                0.72516508        -0.921684
                                0.36385743        -0.378847
                                0.16204617        0.566809
                                0.07447705        0.440905
                                0.03422994        0.024535
                                0.01573221        0.005078
[INPUT] 1    0    [12   /1   ]  28.88080716       0.002227
                                13.19380569       0.046024
                                7.25722596        -0.727345
                                4.84342676        1.251481
                                2.76949909        1.00182
                                1.50719356        -1.701806
                                0.72516508        -0.622978
                                0.36385743        1.581831
                                0.16204617        -0.060905
                                0.07447705        -0.667464
                                0.03422994        -0.031147
                                0.01573221        -0.01129
[INPUT] 1    0    [1    /1   ]  0.01573221           1
[INPUT] 1    0    [1    /1   ]  0.00723058           1
[INPUT] 2    0    [10   /1   ]  46.50908408       0.000358
                                21.60133229       -0.010512
                                11.03652449       0.11118
                                4.54288797        0.164184
                                2.18180243        0.267436
                                1.04009058        0.310836
                                0.48262909        0.28353
                                0.21570372        0.173079
                                0.10059873        0.057279
                                0.04653409        0.00937
[INPUT] 2    0    [10   /1   ]  46.50908408       0.000725
                                21.60133229       0.005694
                                11.03652449       -0.104091
                                4.54288797        -0.217444
                                2.18180243        -0.413534
                                1.04009058        -0.07805
                                0.48262909        0.290464
                                0.21570372        0.417258
                                0.10059873        0.237439
                                0.04653409        0.051282
[INPUT] 2    0    [10   /1   ]  46.50908408       -0.003236
                                21.60133229       0.00626
                                11.03652449       0.082765
                                4.54288797        0.409918
                                2.18180243        0.374551
                                1.04009058        -0.692379
                                0.48262909        -0.433198
                                0.21570372        0.307071
                                0.10059873        0.45679
                                0.04653409        0.105679
[INPUT] 2    0    [1    /1   ]  0.04653409           1
[INPUT] 2    0    [1    /1   ]  0.02152533           1
[INPUT] 3    0    [1    /1   ]  2.951278             1
[INPUT] 3    0    [1    /1   ]  0.820301             1
[INPUT] 3    0    [1    /1   ]  0.22800079           1
[INPUT] 4    0    [1    /1   ]  2.625115             1
[INPUT] 4    0    [1    /1   ]  0.72964472           1
[INPUT] O
[INPUT] 0    0    [10   /1   ]  57.663349         -0.002794
                                35.726816         0.023976
                                22.453757         -0.115974
                                14.732301         0.288033
                                9.739917          -0.274786
                                5.042008          -0.083789
                                2.157818          0.063778
                                1.002916          0.410182
                                0.421839          0.504044
                                0.173041          0.172152
[INPUT] 0    0    [1    /1   ]  1.849096             1
[INPUT] 0    0    [1    /1   ]  0.255434             1
[INPUT] 0    0    [1    /1   ]  0.141483             1
[INPUT] 1    0    [10   /1   ]  52.47406          -0.000522
                                32.138432         0.004857
                                19.458579         -0.027749
                                11.839344         0.074258
                                7.91003           0.014369
                                3.670858          0.153479
                                1.53966           0.283685
                                0.647119          0.358201
                                0.267853          0.29559
                                0.107198          0.104889
[INPUT] 1    0    [1    /1   ]  0.622175             1
[INPUT] 1    0    [1    /1   ]  0.193391             1
[INPUT] 1    0    [1    /1   ]  0.052779             1
[INPUT] 2    0    [1    /1   ]  2.324251             1
[INPUT] 2    0    [1    /1   ]  0.656935             1
[INPUT] 2    0    [1    /1   ]  0.2072               1
[INPUT] 3    0    [1    /1   ]  1.423472             1
[INPUT] 3    0    [1    /1   ]  0.48761              1
nuclear repulsion = 27.4218912506354
number of shells = 35
number of NR pGTOs = 480
number of NR cGTOs = 133
basis = {'Cr': [[0, [41.45590127, 0.010332], [22.20089455, -0.091393], [12.37022616, 0.412444], [7.15443966, -0.722409], [3.63012556, 0.039693], [1.88942247, 0.321055], [1.04381355, 0.652182], [0.47307333, 0.264443], [0.22628807, -0.008646], [0.10750747, 0.012188], [0.05101028, -0.00242], [0.0242372, 0.001733]], [0, [41.45590127, -0.001971], [22.20089455, 0.019152], [12.37022616, -0.094562], [7.15443966, 0.178991], [3.63012556, -0.015716], [1.88942247, -0.084882], [1.04381355, -0.243744], [0.47307333, -0.214624], [0.22628807, 0.055092], [0.10750747, 0.415903], [0.05101028, 0.543473], [0.0242372, 0.170131]], [0, [41.45590127, -0.005985], [22.20089455, 0.069637], [12.37022616, -0.403654], [7.15443966, 0.899468], [3.63012556, -0.19655], [1.88942247, -1.358682], [1.04381355, -0.066602], [0.47307333, 0.748011], [0.22628807, 0.743168], [0.10750747, 0.120335], [0.05101028, -0.554574], [0.0242372, -0.284337]], [0, [41.45590127, -0.005431], [22.20089455, 0.075825], [12.37022616, -0.506871], [7.15443966, 1.314927], [3.63012556, -0.7377], [1.88942247, -2.271634], [1.04381355, 1.711851], [0.47307333, 1.720924], [0.22628807, -1.434003], [0.10750747, -1.046849], [0.05101028, 0.595081], [0.0242372, 0.606245]], [0, [0.0242372, 1.0]], [0, [0.01151614, 1.0]], [1, [28.88080716, -0.002973], [13.19380569, 0.044202], [7.25722596, -0.232476], [4.84342676, 0.167654], [2.76949909, 0.179744], [1.50719356, 0.46058], [0.72516508, 0.338218], [0.36385743, 0.097984], [0.16204617, 0.012145], [0.07447705, -0.000948], [0.03422994, 0.000821], [0.01573221, -0.00022]], [1, [28.88080716, 0.000536], [13.19380569, -0.009363], [7.25722596, 0.054752], [4.84342676, -0.042977], [2.76949909, -0.049244], [1.50719356, -0.128712], [0.72516508, -0.11682], [0.36385743, 0.044517], [0.16204617, 0.322192], [0.07447705, 0.482878], [0.03422994, 0.275764], [0.01573221, 0.025472]], [1, [28.88080716, -0.000428], [13.19380569, 0.034429], [7.25722596, -0.307446], [4.84342676, 0.24996], [2.76949909, 0.789151], [1.50719356, 0.129313], [0.72516508, -0.921684], [0.36385743, -0.378847], [0.16204617, 0.566809], [0.07447705, 0.440905], [0.03422994, 0.024535], [0.01573221, 0.005078]], [1, [28.88080716, 0.002227], [13.19380569, 0.046024], [7.25722596, -0.727345], [4.84342676, 1.251481], [2.76949909, 1.00182], [1.50719356, -1.701806], [0.72516508, -0.622978], [0.36385743, 1.581831], [0.16204617, -0.060905], [0.07447705, -0.667464], [0.03422994, -0.031147], [0.01573221, -0.01129]], [1, [0.01573221, 1.0]], [1, [0.00723058, 1.0]], [2, [46.50908408, 0.000358], [21.60133229, -0.010512], [11.03652449, 0.11118], [4.54288797, 0.164184], [2.18180243, 0.267436], [1.04009058, 0.310836], [0.48262909, 0.28353], [0.21570372, 0.173079], [0.10059873, 0.057279], [0.04653409, 0.00937]], [2, [46.50908408, 0.000725], [21.60133229, 0.005694], [11.03652449, -0.104091], [4.54288797, -0.217444], [2.18180243, -0.413534], [1.04009058, -0.07805], [0.48262909, 0.290464], [0.21570372, 0.417258], [0.10059873, 0.237439], [0.04653409, 0.051282]], [2, [46.50908408, -0.003236], [21.60133229, 0.00626], [11.03652449, 0.082765], [4.54288797, 0.409918], [2.18180243, 0.374551], [1.04009058, -0.692379], [0.48262909, -0.433198], [0.21570372, 0.307071], [0.10059873, 0.45679], [0.04653409, 0.105679]], [2, [0.04653409, 1.0]], [2, [0.02152533, 1.0]], [3, [2.951278, 1.0]], [3, [0.820301, 1.0]], [3, [0.22800079, 1.0]], [4, [2.625115, 1.0]], [4, [0.72964472, 1.0]]], 'O': [[0, [57.663349, -0.002794], [35.726816, 0.023976], [22.453757, -0.115974], [14.732301, 0.288033], [9.739917, -0.274786], [5.042008, -0.083789], [2.157818, 0.063778], [1.002916, 0.410182], [0.421839, 0.504044], [0.173041, 0.172152]], [0, [1.849096, 1.0]], [0, [0.255434, 1.0]], [0, [0.141483, 1.0]], [1, [52.47406, -0.000522], [32.138432, 0.004857], [19.458579, -0.027749], [11.839344, 0.074258], [7.91003, 0.014369], [3.670858, 0.153479], [1.53966, 0.283685], [0.647119, 0.358201], [0.267853, 0.29559], [0.107198, 0.104889]], [1, [0.622175, 1.0]], [1, [0.193391, 1.0]], [1, [0.052779, 1.0]], [2, [2.324251, 1.0]], [2, [0.656935, 1.0]], [2, [0.2072, 1.0]], [3, [1.423472, 1.0]], [3, [0.48761, 1.0]]]}
ecp = {'Cr': [10, [[-1, [[], [[13.07675203, 14.0]], [[15.15807582, 1258.1555038], [4.62785686, -98.60998187], [15.41136599, -6552.46055066], [15.38690637, 5353.09061557]], [[5.24897308, 183.07452839]]]], [0, [[], [], [[9.77680844, -91901.2080948], [9.95980111, 96320.14803227], [8.62275214, 3928.3135917], [12.29288144, -10977.62459544], [18.41316592, -1741.60409682], [16.38541961, 4413.26493033]], []]], [1, [[], [], [[12.00099996, -22156.17142851], [11.46524435, 21551.07876111], [16.23852226, 3703.78784703], [18.43861108, -1424.18632323], [8.88877941, -1964.93568469], [7.52644784, 317.50498882]], []]], [2, [[], [], [[11.1066837, -5435.29666496], [8.49801115, 7350.69608766], [12.28065533, 2443.80334995], [8.1885354, -5401.76770998], [14.34306836, 3881.23075486], [15.24784181, -2855.87137953]], []]]]], 'O': [2, [[-1, [[], [[10.27717748, 6.0]], [[15.99566749, 1232.50197768], [10.46901775, -696.47008301], [14.6384801, -2654.22657081], [12.57591181, 2101.67732548]], [[7.77739102, 61.66306486]]]], [0, [[], [], [[12.39426073, -656683.37638839], [12.38126171, 657858.57667068], [8.57671033, 511.50098405], [9.89256508, -2579.54665641], [28.05641604, -57.68129584], [17.24753607, 970.30940152]], []]], [1, [[], [], [[14.78918914, -363027.24258186], [14.82014018, 361852.52314043], [22.89622221, -1300.20069256], [8.51331893, -181.96869573], [11.48609758, 2194.87589959], [27.22017524, 451.19906206]], []]]]]}
CPU time:         3.73


******** <class 'pyscf.scf.rohf.ROHF'> flags ********
method = ROHF
initial guess = minao
damping factor = 0
level shift factor = 1000.0
DIIS = <class 'pyscf.scf.diis.CDIIS'>
DIIS start cycle = 1
DIIS space = 8
SCF tol = 1e-09
SCF gradient tol = None
max. SCF cycles = 50
direct_scf = True
direct_scf_tol = 1e-13
chkfile to save SCF result = /rc_scratch/bamu3429/tmp1DZJ7W
max_memory 4000 MB (current use 172 MB)
num. doubly occ = 8  num. singly occ = 4
Set gradient conv threshold to 3.16228e-05
init E= -101.844205814919
  HOMO = 499.888313501498  LUMO = 1000.00273125506
cycle= 1 E= -101.844205814919  delta_E= -1.71e-13  |g|= 1.25e-05  |ddm|= 3.9e-08
  HOMO = -0.111686498378372  LUMO = 0.00273125510365588
Extra cycle  E= -101.844205814995  delta_E= -7.61e-11  |g|= 1.05e-05  |ddm|= 2.52e-05
converged SCF energy = -101.844205814995
**** MO energy ****
                Roothaan           | alpha              | beta
MO #1   energy= -3.65147535706547  | -3.7861420674827   | -3.51680864233859  occ= 2
MO #2   energy= -2.34190704708552  | -2.45932130420873  | -2.22449278066436  occ= 2
MO #3   energy= -2.32792250859203  | -2.48786965197828  | -2.16797536520578  occ= 2
MO #4   energy= -2.32150115307101  | -2.5285498952404   | -2.11445243841993  occ= 2
MO #5   energy= -1.14687007092972  | -1.15561004768299  | -1.13813011513     occ= 2
MO #6   energy= -0.443728399504692 | -0.465202066765462 | -0.42225579465002  occ= 2
MO #7   energy= -0.430610767776932 | -0.454772125718423 | -0.406448812864937 occ= 2
MO #8   energy= -0.408352836750411 | -0.416563912199407 | -0.400141761301414 occ= 2
MO #9   energy= -0.140612772810731 | -0.515385300699869 | 0.234159941811252  occ= 1
MO #10  energy= -0.132531927480361 | -0.564024374463285 | 0.298960485825091  occ= 1
MO #11  energy= -0.119376495787912 | -0.395533760861669 | 0.156780272543777  occ= 1
MO #12  energy= -0.111686498378372 | -0.52689056182973  | 0.303516994755715  occ= 1
MO #13  energy= 0.00273125510365588 | -0.00321720969327283 | 0.00867989595575603 occ= 0
MO #14  energy= 0.0104431877137359 | 0.00801873385959049 | 0.0128676415678819 occ= 0
MO #15  energy= 0.0127125801981655 | 0.0117731962958048 | 0.0136520070695978 occ= 0
MO #16  energy= 0.0244071328547485 | 0.0196663541982393 | 0.0291481157958299 occ= 0
MO #17  energy= 0.0326004953243707 | 0.0244592234917897 | 0.0407417671569516 occ= 0
MO #18  energy= 0.0337344167769129 | 0.0274690240022297 | 0.0399998639475108 occ= 0
MO #19  energy= 0.0419734816932819 | 0.0359000745916643 | 0.0480467965699651 occ= 0
MO #20  energy= 0.0634627677865909 | 0.0630318932603779 | 0.0638936568928038 occ= 0
MO #21  energy= 0.0635354269346571 | 0.0631385144737438 | 0.0639323300928182 occ= 0
MO #22  energy= 0.0722345269772064 | 0.0711611774020069 | 0.0733078765524059 occ= 0
MO #23  energy= 0.0731517140731169 | 0.0659705931553079 | 0.0803330772793882 occ= 0
MO #24  energy= 0.0737423577944813 | 0.0731555497563834 | 0.0743291564454409 occ= 0
MO #25  energy= 0.0910811977287843 | 0.0800778931653081 | 0.102084675216274  occ= 0
MO #26  energy= 0.101853931495177  | 0.08417453765029   | 0.119533325340064  occ= 0
MO #27  energy= 0.138297776940944  | 0.116585480484136  | 0.160010081462708  occ= 0
MO #28  energy= 0.138820656561197  | 0.132382473635215  | 0.145258987076476  occ= 0
MO #29  energy= 0.196819219505043  | 0.18940290137815   | 0.204235572086193  occ= 0
MO #30  energy= 0.197054308248697  | 0.189476939769706  | 0.204631712618351  occ= 0
MO #31  energy= 0.209850908815551  | 0.182273625736094  | 0.237428191895007  occ= 0
MO #32  energy= 0.216604762207301  | 0.206134931923102  | 0.227074665950007  occ= 0
MO #33  energy= 0.23520834319459   | 0.224403239732821  | 0.24601344476608   occ= 0
MO #34  energy= 0.236390591842094  | 0.223708917593663  | 0.249072266090526  occ= 0
MO #35  energy= 0.284137256131454  | 0.274564924206797  | 0.29370958805611   occ= 0
MO #36  energy= 0.286678320555224  | 0.274607062399733  | 0.298749577632627  occ= 0
MO #37  energy= 0.291369005211021  | 0.283957995643123  | 0.298780104673562  occ= 0
MO #38  energy= 0.394956611199485  | 0.377032199729663  | 0.412881122272394  occ= 0
MO #39  energy= 0.709164759553804  | 0.701602839197497  | 0.716726689420847  occ= 0
MO #40  energy= 0.709227173168019  | 0.701725529014482  | 0.716728826127684  occ= 0
MO #41  energy= 0.718628679870741  | 0.699906633689665  | 0.73735076385615   occ= 0
MO #42  energy= 0.746671174280263  | 0.71351191435705   | 0.779830445101743  occ= 0
MO #43  energy= 0.75277704078459   | 0.730734408423784  | 0.774819664229985  occ= 0
MO #44  energy= 0.771079344273225  | 0.753154739871065  | 0.789003948675387  occ= 0
MO #45  energy= 0.822628206202469  | 0.775713172022535  | 0.869543232855632  occ= 0
MO #46  energy= 0.823829702534909  | 0.776871947594902  | 0.870787462159023  occ= 0
MO #47  energy= 0.823980290415903  | 0.800347960833795  | 0.847612619684815  occ= 0
MO #48  energy= 0.823993393934114  | 0.800361674086051  | 0.847625113782176  occ= 0
MO #49  energy= 0.828310425029423  | 0.811614740096953  | 0.845006124386016  occ= 0
MO #50  energy= 0.90134470397567   | 0.898941422870832  | 0.903747985080511  occ= 0
MO #51  energy= 0.903709969799577  | 0.898622434067191  | 0.908797506402816  occ= 0
MO #52  energy= 0.960660635534135  | 0.951393688935162  | 0.969927583004054  occ= 0
MO #53  energy= 0.992822288135536  | 0.982331588772611  | 1.00331298253241   occ= 0
MO #54  energy= 0.99452934037739   | 0.989933660333705  | 0.999125020421073  occ= 0
MO #55  energy= 1.04867516012226   | 1.02765651432041   | 1.06969381304462   occ= 0
MO #56  energy= 1.04899539308431   | 1.02804085607721   | 1.06994993844328   occ= 0
MO #57  energy= 1.23765754106722   | 1.20932921203856   | 1.26598587009588   occ= 0
MO #58  energy= 1.23810149979365   | 1.19569737592027   | 1.28050563499597   occ= 0
MO #59  energy= 1.34073022250392   | 1.32712085406285   | 1.35433958365526   occ= 0
MO #60  energy= 1.76848610819941   | 1.75497917635564   | 1.78199304756022   occ= 0
MO #61  energy= 1.78966409902084   | 1.76859922538546   | 1.81072897265621   occ= 0
MO #62  energy= 1.79015716116503   | 1.7548053514404    | 1.82550899667147   occ= 0
MO #63  energy= 2.11793779922325   | 2.11592165124662   | 2.11995394720819   occ= 0
MO #64  energy= 2.11793809831382   | 2.11592136678358   | 2.11995482984405   occ= 0
MO #65  energy= 2.17389556042098   | 2.16844639861648   | 2.17934472371144   occ= 0
MO #66  energy= 2.17389883425506   | 2.16841081669355   | 2.17938685395467   occ= 0
MO #67  energy= 2.23009517375484   | 2.22036144200163   | 2.23982891389867   occ= 0
MO #68  energy= 2.28051731554795   | 2.27126994898483   | 2.28976468211108   occ= 0
MO #69  energy= 2.28621465902012   | 2.2726169902252    | 2.29981232839403   occ= 0
MO #70  energy= 2.39431309067917   | 2.39077910878493   | 2.39784707242486   occ= 0
MO #71  energy= 2.39432877467169   | 2.39080535806631   | 2.39785219112141   occ= 0
MO #72  energy= 2.46371170114087   | 2.44752538314981   | 2.47989801920124   occ= 0
MO #73  energy= 2.54970141159774   | 2.52884940338319   | 2.5705534198123    occ= 0
MO #74  energy= 2.55690618383546   | 2.52722812399833   | 2.5865842437909    occ= 0
MO #75  energy= 2.72415720345911   | 2.70291204464783   | 2.74540236307743   occ= 0
MO #76  energy= 2.77674758381741   | 2.69340360509518   | 2.86009156253965   occ= 0
MO #77  energy= 2.77675561041276   | 2.69342287421677   | 2.86008834663297   occ= 0
MO #78  energy= 2.84853140303849   | 2.79117325205959   | 2.90588955207281   occ= 0
MO #79  energy= 2.84865942584885   | 2.79157770956975   | 2.90574114563058   occ= 0
MO #80  energy= 2.95894888909668   | 2.92637730506638   | 2.99152047007337   occ= 0
MO #81  energy= 3.05573786194293   | 3.00399751277656   | 3.10747821357075   occ= 0
MO #82  energy= 3.05583826379786   | 3.03495099048681   | 3.07672553710892   occ= 0
MO #83  energy= 3.3193990017616    | 3.2837063167474    | 3.3550916868829    occ= 0
MO #84  energy= 3.3193992974206    | 3.28370733954807   | 3.35509125543364   occ= 0
MO #85  energy= 3.3780444271829    | 3.35157638722575   | 3.40451246747795   occ= 0
MO #86  energy= 3.37805472613951   | 3.35156609841656   | 3.40454335386246   occ= 0
MO #87  energy= 3.46462024674386   | 3.44146354975758   | 3.48777694533495   occ= 0
MO #88  energy= 3.5521753927725    | 3.54505599406994   | 3.55929479147507   occ= 0
MO #89  energy= 3.55756001804953   | 3.54382899698518   | 3.57129104464623   occ= 0
MO #90  energy= 3.5602790642471    | 3.47900463445653   | 3.6415534915668    occ= 0
MO #91  energy= 3.56065758371108   | 3.47994450909814   | 3.64137064911252   occ= 0
MO #92  energy= 3.7204563589332    | 3.69985035199681   | 3.74106236656088   occ= 0
MO #93  energy= 3.72084720698172   | 3.6998311907379    | 3.74186322390724   occ= 0
MO #94  energy= 3.78529344000847   | 3.76926636486241   | 3.80132051162499   occ= 0
MO #95  energy= 3.90756080979355   | 3.85562019517933   | 3.95950142969882   occ= 0
MO #96  energy= 3.90792648875034   | 3.88569051857726   | 3.93016245892342   occ= 0
MO #97  energy= 4.19611696701565   | 4.15589402973485   | 4.23633990538921   occ= 0
MO #98  energy= 4.32317102096671   | 4.31149823279092   | 4.33484380914251   occ= 0
MO #99  energy= 4.32389866434144   | 4.29236899299242   | 4.35542833040877   occ= 0
MO #100 energy= 5.37815727505775   | 5.36244744135028   | 5.39386710942365   occ= 0
MO #101 energy= 6.28927518732499   | 6.27507781380296   | 6.3034725615667    occ= 0
MO #102 energy= 6.5430380672421    | 6.54161750283598   | 6.5444586316482    occ= 0
MO #103 energy= 6.54303888712527   | 6.54161781731751   | 6.54445995693307   occ= 0
MO #104 energy= 6.6430040844828    | 6.64188190247021   | 6.64412626649175   occ= 0
MO #105 energy= 6.64304176735155   | 6.64191285062351   | 6.64417068407578   occ= 0
MO #106 energy= 6.73717980992485   | 6.73198389673271   | 6.742375723117     occ= 0
MO #107 energy= 6.74575308190711   | 6.7374350551116    | 6.75407110881963   occ= 0
MO #108 energy= 7.12747743072219   | 7.1248650604527    | 7.13008980099159   occ= 0
MO #109 energy= 7.12748325450244   | 7.12486215072323   | 7.13010435828203   occ= 0
MO #110 energy= 7.22776343207941   | 7.21711940408156   | 7.23840746007727   occ= 0
MO #111 energy= 7.23784533046699   | 7.22308288091858   | 7.25260777965701   occ= 0
MO #112 energy= 7.6311575198429    | 7.59813206354853   | 7.66418297613725   occ= 0
MO #113 energy= 7.64784486279665   | 7.60189413874116   | 7.69379558739972   occ= 0
MO #114 energy= 7.67159081367178   | 7.66526086911631   | 7.67792075829125   occ= 0
MO #115 energy= 7.75125272164153   | 7.71910864232102   | 7.78339680084087   occ= 0
MO #116 energy= 8.71999176131438   | 8.62068633455949   | 8.81929718805383   occ= 0
MO #117 energy= 8.71999419242589   | 8.62071257756894   | 8.81927580728287   occ= 0
MO #118 energy= 8.74612056540932   | 8.66857282556048   | 8.82366830552798   occ= 0
MO #119 energy= 8.74614464360004   | 8.66914846514454   | 8.82314082264941   occ= 0
MO #120 energy= 9.00923401082726   | 8.96735026239888   | 9.05111775925563   occ= 0
MO #121 energy= 9.02067190246231   | 8.94550774674541   | 9.09583605890831   occ= 0
MO #122 energy= 9.1949833447467    | 9.16588224894929   | 9.22408444055564   occ= 0
MO #123 energy= 9.5593304165518    | 9.5167050953294    | 9.60195573767877   occ= 0
MO #124 energy= 11.5417794181246   | 11.4762823269218   | 11.6072765094017   occ= 0
MO #125 energy= 11.5417798496511   | 11.4762834333923   | 11.6072762659791   occ= 0
MO #126 energy= 11.5427261620791   | 11.4880757061019   | 11.5973766180563   occ= 0
MO #127 energy= 11.5427365402016   | 11.4880700165712   | 11.5974030646715   occ= 0
MO #128 energy= 11.6317480576554   | 11.587700378445    | 11.6757957368885   occ= 0
MO #129 energy= 11.6335912717752   | 11.5865847392065   | 11.6805978043418   occ= 0
MO #130 energy= 11.735471055388    | 11.6942837782018   | 11.7766583321007   occ= 0
MO #131 energy= 11.7380125475664   | 11.7055525119366   | 11.7704725831963   occ= 0
MO #132 energy= 11.7614065750669   | 11.708904282993    | 11.8139088670213   occ= 0
MO #133 energy= 13.5274115285035   | 13.5239904666373   | 13.530832590353    occ= 0
 ** Mulliken pop on meta-lowdin orthogonal AOs  **
 ** Mulliken pop  **
pop of  0Cr 3s        1.99965
pop of  0Cr 4s        0.72165
pop of  0Cr 5s        0.01201
pop of  0Cr 6s        0.00436
pop of  0Cr 7s        0.00472
pop of  0Cr 8s        0.00222
pop of  0Cr 3px       1.99942
pop of  0Cr 3py       1.99954
pop of  0Cr 3pz       1.99786
pop of  0Cr 4px       0.01360
pop of  0Cr 4py       0.03208
pop of  0Cr 4pz       0.01886
pop of  0Cr 5px       0.00069
pop of  0Cr 5py       0.00139
pop of  0Cr 5pz       0.00269
pop of  0Cr 6px       0.00001
pop of  0Cr 6py       0.00002
pop of  0Cr 6pz       0.00036
pop of  0Cr 7px       0.00024
pop of  0Cr 7py       0.00052
pop of  0Cr 7pz       0.00215
pop of  0Cr 8px       0.00006
pop of  0Cr 8py       0.00015
pop of  0Cr 8pz       0.00016
pop of  0Cr 3dxy      0.99701
pop of  0Cr 3dyz      1.06338
pop of  0Cr 3dz^2     0.79573
pop of  0Cr 3dxz      0.30852
pop of  0Cr 3dx2-y2    0.98358
pop of  0Cr 4dxy      0.00189
pop of  0Cr 4dyz      0.00223
pop of  0Cr 4dz^2     0.00032
pop of  0Cr 4dxz      0.00292
pop of  0Cr 4dx2-y2    0.00203
pop of  0Cr 5dxy      0.00009
pop of  0Cr 5dyz      0.00004
pop of  0Cr 5dz^2     0.00111
pop of  0Cr 5dxz      0.00003
pop of  0Cr 5dx2-y2    0.00010
pop of  0Cr 6dxy      0.00048
pop of  0Cr 6dyz      0.00090
pop of  0Cr 6dz^2     0.00061
pop of  0Cr 6dxz      0.00048
pop of  0Cr 6dx2-y2    0.00049
pop of  0Cr 7dxy      0.00003
pop of  0Cr 7dyz      0.00005
pop of  0Cr 7dz^2     0.00015
pop of  0Cr 7dxz      0.00002
pop of  0Cr 7dx2-y2    0.00003
pop of  0Cr 4fy^3     0.00001
pop of  0Cr 4fxyz     0.00000
pop of  0Cr 4fyz^2    0.00006
pop of  0Cr 4fz^3     0.00009
pop of  0Cr 4fxz^2    0.00005
pop of  0Cr 4fzx^2    0.00001
pop of  0Cr 4fx^3     0.00001
pop of  0Cr 5fy^3     0.00001
pop of  0Cr 5fxyz     0.00009
pop of  0Cr 5fyz^2    0.00057
pop of  0Cr 5fz^3     0.00088
pop of  0Cr 5fxz^2    0.00060
pop of  0Cr 5fzx^2    0.00013
pop of  0Cr 5fx^3     0.00001
pop of  0Cr 6fy^3     0.00000
pop of  0Cr 6fxyz     0.00016
pop of  0Cr 6fyz^2    0.00027
pop of  0Cr 6fz^3     0.00216
pop of  0Cr 6fxz^2    0.00022
pop of  0Cr 6fzx^2    0.00020
pop of  0Cr 6fx^3     0.00000
pop of  0Cr 5g-4      0.00000
pop of  0Cr 5g-3      0.00000
pop of  0Cr 5g-2      0.00000
pop of  0Cr 5g-1      0.00001
pop of  0Cr 5g 0      0.00001
pop of  0Cr 5g 1      0.00001
pop of  0Cr 5g 2      0.00000
pop of  0Cr 5g 3      0.00000
pop of  0Cr 5g 4      0.00000
pop of  0Cr 6g-4      0.00000
pop of  0Cr 6g-3      0.00000
pop of  0Cr 6g-2      0.00000
pop of  0Cr 6g-1      0.00011
pop of  0Cr 6g 0      0.00018
pop of  0Cr 6g 1      0.00005
pop of  0Cr 6g 2      0.00000
pop of  0Cr 6g 3      0.00000
pop of  0Cr 6g 4      0.00000
pop of  1O 2s        1.87868
pop of  1O 3s        0.00074
pop of  1O 4s        0.00147
pop of  1O 5s        0.00648
pop of  1O 2px       1.65135
pop of  1O 2py       1.86347
pop of  1O 2pz       1.54673
pop of  1O 3px       0.00000
pop of  1O 3py       0.00002
pop of  1O 3pz       0.00023
pop of  1O 4px       0.00707
pop of  1O 4py       0.01366
pop of  1O 4pz       0.00175
pop of  1O 5px       0.00447
pop of  1O 5py       0.00960
pop of  1O 5pz       0.00368
pop of  1O 3dxy      0.00000
pop of  1O 3dyz      0.00027
pop of  1O 3dz^2     0.00050
pop of  1O 3dxz      0.00039
pop of  1O 3dx2-y2    0.00000
pop of  1O 4dxy      0.00000
pop of  1O 4dyz      0.00253
pop of  1O 4dz^2     0.00269
pop of  1O 4dxz      0.00332
pop of  1O 4dx2-y2    0.00000
pop of  1O 5dxy      0.00018
pop of  1O 5dyz      0.00847
pop of  1O 5dz^2     0.00212
pop of  1O 5dxz      0.00606
pop of  1O 5dx2-y2    0.00019
pop of  1O 4fy^3     0.00000
pop of  1O 4fxyz     0.00000
pop of  1O 4fyz^2    0.00007
pop of  1O 4fz^3     0.00010
pop of  1O 4fxz^2    0.00008
pop of  1O 4fzx^2    0.00000
pop of  1O 4fx^3     0.00000
pop of  1O 5fy^3     0.00000
pop of  1O 5fxyz     0.00006
pop of  1O 5fyz^2    0.00054
pop of  1O 5fz^3     0.00006
pop of  1O 5fxz^2    0.00032
pop of  1O 5fzx^2    0.00006
pop of  1O 5fx^3     0.00000
 ** Mulliken atomic charges  **
charge of  0Cr =      1.01745
charge of  1O =     -1.01745

******** <class 'pyscf.mcscf.mc1step.CASSCF'> flags ********
CAS (7e+3e, 9o), ncore = 5, nvir = 119
max_cycle_macro = 50
max_cycle_micro = 4
conv_tol = 1e-07
conv_tol_grad = None
orbital rotation max_stepsize = 0.02
augmented hessian ah_max_cycle = 30
augmented hessian ah_conv_tol = 1e-12
augmented hessian ah_linear dependence = 1e-14
augmented hessian ah_level shift = 0
augmented hessian ah_start_tol = 2.5
augmented hessian ah_start_cycle = 3
augmented hessian ah_grad_trust_region = 3
kf_trust_region = 3
kf_interval = 4
ci_response_space = 4
ci_grad_trust_region = 3
with_dep4 0
natorb = False
canonicalization = True
sorting_mo_energy = False
chkfile = ./scratch/140054/tmpOivdGy
max_memory 4000 MB (current use 592 MB)
internal_rotation = False

******** SHCI flags ********
executable             = /home/bamu3429/softwares/dice/Dice
mpiprefix              = srun -n20
scratchDirectory       = ./scratch/140054
integralFile           = ./FCIDUMP
configFile             = ./input.dat
outputFile             = ./output.dat
maxIter                = 6
sweep_iter             = []
sweep_epsilon          = []
nPTiter                = 0
Stochastic             = True
fullrestart            = False
restart                = False
num_thrds              = 12
memory                 = None

CASCI E = -101.845575255989  S^2 = 6.0000000
Set conv_tol_grad to 0.000316228
macro iter 1 (21 JK  4 micro), CASSCF E = -101.875462114341  dE = -0.029886858  S^2 = 6.0000000
               |grad[o]|=0.00683  |grad[c]|= None  |ddm|=0.138
macro iter 2 (21 JK  4 micro), CASSCF E = -101.912422912749  dE = -0.036960798  S^2 = 6.0000000
               |grad[o]|=0.104  |grad[c]|= None  |ddm|=0.144
macro iter 3 (21 JK  4 micro), CASSCF E = -101.937583227401  dE = -0.025160315  S^2 = 6.0000000
               |grad[o]|=0.0956  |grad[c]|= None  |ddm|=0.0496
macro iter 4 (21 JK  4 micro), CASSCF E = -101.962602115871  dE = -0.025018888  S^2 = 6.0000000
               |grad[o]|=0.083  |grad[c]|= None  |ddm|=0.0948
macro iter 5 (18 JK  4 micro), CASSCF E = -101.974107552086  dE = -0.011505436  S^2 = 6.0000000
               |grad[o]|=0.073  |grad[c]|= None  |ddm|=0.164
macro iter 6 (10 JK  4 micro), CASSCF E = -101.974359844886  dE = -0.0002522928  S^2 = 6.0000000
               |grad[o]|=0.0144  |grad[c]|= None  |ddm|=0.0354
macro iter 7 (10 JK  4 micro), CASSCF E = -101.974361843525  dE = -1.9986393e-06  S^2 = 6.0000000
               |grad[o]|=0.00101  |grad[c]|= None  |ddm|=0.00324
macro iter 8 (3 JK  1 micro), CASSCF E = -101.974361859966  dE = -1.6440453e-08  S^2 = 6.0000000
               |grad[o]|=0.00011  |grad[c]|= None  |ddm|=0.000178
1-step CASSCF converged in 8 macro (125 JK 29 micro) steps
CASSCF canonicalization
CASSCF energy = -101.974361859966


--------------------------------------------------
                 ICMPSPT CALCULATION              
--------------------------------------------------

Perturbation type: MRLCC
With fully internally contracted scheme
With third order correction

Preparing necessary RDMs
......production of RDMs took      54.71 sec
Reading binary 4RDM from DICE
......reading the RDM took         27.01 sec

(GOOD) Trace 4RDM:   5040.0 =   10*    9*    8*    7
(GOOD) Trace 3RDM:    720.0 =   10*    9*    8
(GOOD) Trace 2RDM:     90.0 =   10*    9
(GOOD) Trace 1RDM:     10.0 =   10

Producing the integrals
......production of INT took     138.29 sec

Energy_core = -104.44856272
Energy      = -101.97436186

WARNING: Have to use natural orbitals from CAASCF
         offdiagonal elements:    0.69281021

Basic ingredients written to int/
......savings of INGREDIENTS took     132.61 sec

Second-order:
perturber CCVV --        -0.110787299
perturber CCAV --        -0.057818896
perturber ACVV --        -0.184394438
perturber CCAA --        -0.040942150
perturber AAVV --        -0.182732046
perturber CAAV --        -0.148177683
perturber AAAV --        -0.061910107
perturber AAAC --        -0.004566547
Total:                   -0.791329166

Third-order:              0.003033610

Total PT       --        -0.788295555

