 &FCI NORB=9 ,NELEC=8 ,MS2=2,
  ORBSYM=1,1,1,1,1,1,1,1,1,
  ISYM=1,
 &END
  6.522383399918e-01    1  1  1  1
  1.250509413252e-10    2  1  1  1
  2.949601551087e-02    2  1  2  1
  5.871709041933e-01    2  2  1  1
  1.277105089367e-10    2  2  2  1
  6.456320519138e-01    2  2  2  2
  6.975448466957e-11    3  1  1  1
  5.318065603567e-11    3  1  2  2
  2.949601551092e-02    3  1  3  1
  1.073661714472e-11    3  2  2  1
  1.327769326654e-06    3  2  2  2
  1.852393135146e-11    3  2  3  1
  2.883437233201e-02    3  2  3  2
  5.871709041939e-01    3  3  1  1
  9.371459347297e-11    3  3  2  1
  5.879768763853e-01    3  3  2  2
  7.109162559417e-11    3  3  3  1
 -1.327770009208e-06    3  3  3  2
  6.456320519156e-01    3  3  3  3
  2.287763180973e-02    4  1  1  1
  6.830512257158e-11    4  1  2  1
  1.682800554021e-02    4  1  2  2
  3.508700673452e-11    4  1  3  1
  1.682800554021e-02    4  1  3  3
  4.620553552100e-03    4  1  4  1
  9.635401594181e-10    4  2  1  1
 -5.637723319528e-04    4  2  2  1
  8.592746129295e-10    4  2  2  2
  6.589739698563e-08    4  2  3  1
 -2.063734564626e-12    4  2  3  2
  8.624899416530e-10    4  2  3  3
  3.762565024881e-11    4  2  4  1
  1.744514540034e-03    4  2  4  2
  4.920206681796e-10    4  3  1  1
 -6.589740211902e-08    4  3  2  1
  4.398481494769e-10    4  3  2  2
 -5.637723319467e-04    4  3  3  1
 -3.050342646163e-12    4  3  3  2
  4.394712914313e-10    4  3  3  3
  1.988148427844e-11    4  3  4  1
  1.744514540018e-03    4  3  4  3
  2.303425472886e-01    4  4  1  1
  9.110981572814e-11    4  4  2  1
  2.130330995787e-01    4  4  2  2
  4.772087550659e-11    4  4  3  1
  2.130330995785e-01    4  4  3  3
  3.312442210655e-03    4  4  4  1
  2.499019463192e-10    4  4  4  2
  1.294793432745e-10    4  4  4  3
  2.647614862143e-01    4  4  4  4
  2.283572510882e-11    5  1  2  1
  4.506228184550e-05    5  1  2  2
  2.736064375339e-11    5  1  3  1
  2.364426543449e-04    5  1  3  2
 -4.506228182618e-05    5  1  3  3
 -9.144566798256e-12    5  1  4  2
 -1.009120534087e-11    5  1  4  3
  7.672094979724e-03    5  1  5  1
  7.284275224166e-11    5  2  1  1
 -3.469819782813e-04    5  2  2  1
  6.782283240660e-11    5  2  2  2
 -1.815341188731e-03    5  2  3  1
  5.276747252284e-12    5  2  3  2
  6.218275862730e-11    5  2  3  3
 -2.709168986791e-11    5  2  4  1
  1.018309031306e-04    5  2  4  2
  5.324092777665e-04    5  2  4  3
  7.969042463611e-11    5  2  4  4
  3.595469177240e-11    5  2  5  1
  4.483035146564e-03    5  2  5  2
  9.163914331113e-11    5  3  1  1
 -1.815341188728e-03    5  3  2  1
  7.919817895427e-11    5  3  2  2
  3.469819782646e-04    5  3  3  1
  4.238061816544e-12    5  3  3  2
  8.632808157269e-11    5  3  3  3
 -3.152846924759e-11    5  3  4  1
  5.324092777650e-04    5  3  4  2
 -1.018309031236e-04    5  3  4  3
  1.031950844603e-10    5  3  4  4
  2.044631034822e-11    5  3  5  1
  4.483035146523e-03    5  3  5  3
  4.235930270352e-04    5  4  2  2
  2.214500952545e-03    5  4  3  2
 -4.235930269959e-04    5  4  3  3
  1.963032211966e-11    5  4  4  2
  2.589619409010e-11    5  4  4  3
  2.882794777546e-03    5  4  5  1
  4.447076951316e-12    5  4  5  2
  1.057184796162e-02    5  4  5  4
  3.829139404205e-01    5  5  1  1
  1.578877689190e-10    5  5  2  1
  3.302769589109e-01    5  5  2  2
  8.256672361165e-11    5  5  3  1
  3.302769589105e-01    5  5  3  3
  2.459314291054e-02    5  5  4  1
  1.723536873533e-10    5  5  4  2
  8.170402021234e-11    5  5  4  3
  3.135021611534e-01    5  5  4  4
 -4.145022574048e-11    5  5  5  2
 -5.195084308379e-11    5  5  5  3
  6.476237604792e-01    5  5  5  5
  3.172411744776e-10    6  1  1  1
 -5.173909177794e-03    6  1  2  1
  3.301789511329e-10    6  1  2  2
 -8.794282691268e-03    6  1  3  1
  1.265808850907e-11    6  1  3  2
  3.280889275256e-10    6  1  3  3
 -1.689318649876e-11    6  1  4  1
 -2.640813471117e-04    6  1  4  2
 -4.489786146235e-04    6  1  4  3
 -1.283568654240e-10    6  1  4  4
 -2.023085684916e-11    6  1  5  1
 -1.667436479665e-03    6  1  5  2
 -5.951520703161e-04    6  1  5  3
 -1.469353320286e-11    6  1  5  4
  6.786762746171e-11    6  1  5  5
  1.344066965346e-02    6  1  6  1
 -6.911442809923e-02    6  2  1  1
  4.984939153564e-11    6  2  2  1
 -9.135715997740e-02    6  2  2  2
  2.952787050853e-11    6  2  3  1
 -1.004332997487e-02    6  2  3  2
 -7.952221717055e-02    6  2  3  3
  1.140221557496e-04    6  2  4  1
 -5.204854730778e-10    6  2  4  2
 -2.840006986952e-10    6  2  4  3
  1.511936984783e-02    6  2  4  4
  1.328513162148e-03    6  2  5  1
 -1.570026193196e-11    6  2  5  2
 -2.688459758968e-11    6  2  5  3
  2.100184029898e-03    6  2  5  4
  3.790669325168e-02    6  2  5  5
 -1.161905493996e-10    6  2  6  1
  4.861099041758e-02    6  2  6  2
 -1.174793882492e-01    6  3  1  1
  3.115820526683e-11    6  3  2  1
 -1.351635764039e-01    6  3  2  2
  4.590643117218e-11    6  3  3  1
 -5.913762771182e-03    6  3  3  2
 -1.553032886340e-01    6  3  3  3
  1.948250806536e-04    6  3  4  1
 -6.863774686506e-10    6  3  4  2
 -4.669264426947e-10    6  3  4  3
  2.570468064539e-02    6  3  4  4
  4.744023647049e-04    6  3  5  1
 -3.290120467503e-11    6  3  5  2
 -5.049968893200e-11    6  3  5  3
  7.496453998457e-04    6  3  5  4
  6.445086685808e-02    6  3  5  5
 -1.892489265549e-10    6  3  6  1
  6.095520676586e-02    6  3  6  2
  1.163422296465e-01    6  3  6  3
 -1.762896453452e-09    6  4  1  1
 -1.116095804739e-03    6  4  2  1
 -2.100129863907e-09    6  4  2  2
 -1.897043978668e-03    6  4  3  1
 -1.561700716075e-10    6  4  3  2
 -2.084912443692e-09    6  4  3  3
 -1.054035239829e-10    6  4  4  1
  1.379932936428e-03    6  4  4  2
  2.345555344763e-03    6  4  4  3
  4.354175368091e-10    6  4  4  4
 -8.532248622104e-12    6  4  5  1
  7.258436185172e-04    6  4  5  2
  2.591998503692e-04    6  4  5  3
  6.152797420933e-11    6  4  5  4
  5.709733694198e-10    6  4  5  5
 -3.334435763598e-05    6  4  6  1
  7.972357025787e-10    6  4  6  2
  1.263226384784e-09    6  4  6  3
  5.592359206922e-03    6  4  6  4
 -2.183528630153e-11    6  5  1  1
 -3.094340767119e-03    6  5  2  1
 -4.021909347564e-11    6  5  2  2
 -1.104166923464e-03    6  5  3  1
 -1.139825840206e-11    6  5  3  2
 -3.792892646584e-11    6  5  3  3
 -1.557336566893e-11    6  5  4  1
  1.086289941081e-03    6  5  4  2
  3.875777968987e-04    6  5  4  3
  1.250644462849e-10    6  5  4  4
  3.463673297302e-12    6  5  5  1
  3.535259692997e-03    6  5  5  2
  6.010466771670e-03    6  5  5  3
  3.871957458846e-11    6  5  5  4
  8.907948136947e-11    6  5  5  5
 -1.732408994225e-03    6  5  6  1
  1.497248520597e-11    6  5  6  2
  3.803489509665e-11    6  5  6  3
  1.346441083430e-03    6  5  6  4
  1.508742515831e-02    6  5  6  5
  5.124063952065e-01    6  6  1  1
  1.010155089746e-10    6  6  2  1
  4.913239847177e-01    6  6  2  2
  3.447635901372e-11    6  6  3  1
  1.465889469334e-02    6  6  3  2
  5.075663213446e-01    6  6  3  3
  2.232459137914e-02    6  6  4  1
  8.331989930228e-10    6  6  4  2
  4.835816641408e-10    6  6  4  3
  2.613525900643e-01    6  6  4  4
  2.608009764432e-03    6  6  5  1
  2.157621767644e-11    6  6  5  2
  3.722325849961e-11    6  6  5  3
  3.418349668765e-03    6  6  5  4
  4.622025308456e-01    6  6  5  5
  3.038581138910e-10    6  6  6  1
 -3.535604941048e-02    6  6  6  2
 -6.016784575418e-02    6  6  6  3
 -1.136150121947e-09    6  6  6  4
 -2.923097489655e-12    6  6  6  5
  5.255375755918e-01    6  6  6  6
  2.028131126188e-10    7  1  1  1
 -8.794282691286e-03    7  1  2  1
  2.187441522739e-10    7  1  2  2
  5.173909177749e-03    7  1  3  1
  1.972068551535e-10    7  1  3  3
 -1.150147414686e-11    7  1  4  1
 -4.489786146213e-04    7  1  4  2
  2.640813471170e-04    7  1  4  3
 -8.110658375953e-11    7  1  4  4
 -3.481956288447e-12    7  1  5  1
  5.951520703151e-04    7  1  5  2
 -1.667436479657e-03    7  1  5  3
 -1.745528711896e-12    7  1  5  4
  4.876288722125e-11    7  1  5  5
 -7.665159225478e-11    7  1  6  2
 -9.599277832504e-11    7  1  6  3
 -3.267483088380e-07    7  1  6  4
 -1.448093543477e-03    7  1  6  5
  1.582503411532e-10    7  1  6  6
  1.344066965346e-02    7  1  7  1
 -1.174793882493e-01    7  2  1  1
  5.888332685407e-11    7  2  2  1
 -1.553032886334e-01    7  2  2  2
 -2.381751814125e-12    7  2  3  1
  5.913762771563e-03    7  2  3  2
 -1.351635764046e-01    7  2  3  3
  1.948250806704e-04    7  2  4  1
 -7.931036822101e-10    7  2  4  2
 -2.919860614286e-10    7  2  4  3
  2.570468064550e-02    7  2  4  4
 -4.744023646999e-04    7  2  5  1
 -4.334545957835e-11    7  2  5  2
 -3.495083405001e-11    7  2  5  3
 -7.496453998476e-04    7  2  5  4
  6.445086685839e-02    7  2  5  5
 -1.751817569375e-10    7  2  6  1
  6.093786649758e-02    7  2  6  2
  9.086776551430e-02    7  2  6  3
  1.177048684361e-09    7  2  6  4
  3.637444952435e-11    7  2  6  5
 -5.378454470292e-02    7  2  6  6
 -1.235827202327e-10    7  2  7  1
  1.163422296467e-01    7  2  7  2
  6.911442809921e-02    7  3  1  1
  7.952221717012e-02    7  3  2  2
 -1.004332997523e-02    7  3  3  2
  9.135715997753e-02    7  3  3  3
 -1.140221557077e-04    7  3  4  1
  3.439439760143e-10    7  3  4  2
  1.725148225419e-10    7  3  4  3
 -1.511936984756e-02    7  3  4  4
  1.328513162136e-03    7  3  5  1
  1.511846778007e-11    7  3  5  2
  3.575501300635e-11    7  3  5  3
  2.100184029877e-03    7  3  5  4
 -3.790669325094e-02    7  3  5  5
  9.130469043188e-11    7  3  6  1
 -2.309367910909e-02    7  3  6  2
 -6.093786649725e-02    7  3  6  3
 -6.273466267038e-10    7  3  6  4
 -2.780136379171e-11    7  3  6  5
  3.168980771180e-02    7  3  6  6
  6.205365882090e-11    7  3  7  1
 -6.095520676570e-02    7  3  7  2
  4.861099041731e-02    7  3  7  3
 -1.102898118753e-09    7  4  1  1
 -1.897043978663e-03    7  4  2  1
 -1.458850560947e-09    7  4  2  2
  1.116095804749e-03    7  4  3  1
  6.620536203641e-12    7  4  3  2
 -1.151681506730e-09    7  4  3  3
 -7.014350067123e-11    7  4  4  1
  2.345555344769e-03    7  4  4  2
 -1.379932936413e-03    7  4  4  3
  2.633119631497e-10    7  4  4  4
 -1.963404722302e-12    7  4  5  1
 -2.591998503711e-04    7  4  5  2
  7.258436185070e-04    7  4  5  3
  6.958059085942e-12    7  4  5  4
  3.395972806668e-10    7  4  5  5
  3.267483268084e-07    7  4  6  1
  4.993669182110e-10    7  4  6  2
  6.705136021246e-10    7  4  6  3
  1.125522610387e-03    7  4  6  5
 -6.354665543902e-10    7  4  6  6
 -3.334435763767e-05    7  4  7  1
  8.454321758621e-10    7  4  7  2
 -4.124622841035e-10    7  4  7  3
  5.592359206922e-03    7  4  7  4
 -2.714234812496e-12    7  5  1  1
  1.104166923462e-03    7  5  2  1
 -8.132311133082e-12    7  5  2  2
 -3.094340767108e-03    7  5  3  1
 -6.895151627065e-12    7  5  3  2
 -1.546033081546e-12    7  5  3  3
 -2.458802404364e-12    7  5  4  1
 -3.875777968983e-04    7  5  4  2
  1.086289941073e-03    7  5  4  3
  1.439520579214e-11    7  5  4  4
  2.464585278158e-12    7  5  5  1
  6.010466771692e-03    7  5  5  2
 -3.535259692939e-03    7  5  5  3
  2.434321779989e-11    7  5  5  4
  1.393571386250e-11    7  5  5  5
 -1.448093543482e-03    7  5  6  1
  2.530357285258e-12    7  5  6  2
 -1.027308212982e-12    7  5  6  3
  1.125522610393e-03    7  5  6  4
 -9.029783530485e-12    7  5  6  6
  1.732408994239e-03    7  5  7  1
  9.528958009748e-12    7  5  7  2
 -6.311607985095e-12    7  5  7  3
 -1.346441083440e-03    7  5  7  4
  1.508742515831e-02    7  5  7  5
 -1.918553654640e-11    7  6  2  1
  1.462975034718e-02    7  6  2  2
  8.157518263069e-03    7  6  3  2
 -1.462975034686e-02    7  6  3  3
  5.938082229179e-11    7  6  4  2
  2.179567645298e-03    7  6  5  1
  4.259248671354e-12    7  6  5  2
 -6.203456857983e-12    7  6  5  3
  2.857339975184e-03    7  6  5  4
  1.845864795827e-11    7  6  6  1
 -3.163823721844e-03    7  6  6  2
  1.906036704322e-03    7  6  6  3
 -4.463052095624e-11    7  6  6  4
 -1.223463191981e-11    7  6  6  5
  8.546179281089e-05    7  6  6  6
  2.909648898629e-11    7  6  7  1
 -1.906036704364e-03    7  6  7  2
 -3.163823721805e-03    7  6  7  3
 -6.810712321373e-11    7  6  7  4
  1.787095819343e-02    7  6  7  6
  5.124063952065e-01    7  7  1  1
  9.945582505910e-11    7  7  2  1
  5.075663213444e-01    7  7  2  2
  7.336107779305e-11    7  7  3  1
 -1.465889469352e-02    7  7  3  2
  4.913239847180e-01    7  7  3  3
  2.232459137914e-02    7  7  4  1
  8.416990667170e-10    7  7  4  2
  3.660056374912e-10    7  7  4  3
  2.613525900643e-01    7  7  4  4
 -2.608009764399e-03    7  7  5  1
  2.564796488791e-11    7  7  5  2
  2.444225795018e-11    7  7  5  3
 -3.418349668737e-03    7  7  5  4
  4.622025308455e-01    7  7  5  5
  2.451344797282e-10    7  7  6  1
 -3.168980771160e-02    7  7  6  2
 -5.378454470300e-02    7  7  6  3
 -9.957092986914e-10    7  7  6  4
  1.435623245920e-11    7  7  6  5
  4.897377692237e-01    7  7  6  6
  1.944957760207e-10    7  7  7  1
 -6.016784575402e-02    7  7  7  2
  3.535604941086e-02    7  7  7  3
 -7.193286042338e-10    7  7  7  4
  1.196824766691e-11    7  7  7  5
 -8.546179229599e-05    7  7  7  6
  5.255375755917e-01    7  7  7  7
  1.290564419133e-01    8  1  1  1
 -9.775103857074e-11    8  1  2  1
  1.375061907210e-01    8  1  2  2
 -4.749773115383e-11    8  1  3  1
  1.375061907217e-01    8  1  3  3
 -3.315274166555e-03    8  1  4  1
  4.875498349249e-10    8  1  4  2
  2.481923972162e-10    8  1  4  3
 -4.852098433100e-02    8  1  4  4
  5.198668781635e-11    8  1  5  2
  5.795321696741e-11    8  1  5  3
 -1.210939142628e-01    8  1  5  5
  3.034153875254e-10    8  1  6  1
 -6.175084800038e-02    8  1  6  2
 -1.049734838725e-01    8  1  6  3
 -1.274465264274e-09    8  1  6  4
 -8.896911970281e-11    8  1  6  5
  2.121483449845e-02    8  1  6  6
  1.928049487403e-10    8  1  7  1
 -1.049734838727e-01    8  1  7  2
  6.175084799995e-02    8  1  7  3
 -7.775580913805e-10    8  1  7  4
 -1.131883146966e-11    8  1  7  5
  2.121483449848e-02    8  1  7  7
  1.545021756471e-01    8  1  8  1
 -1.737282060373e-09    8  2  1  1
  1.361829501409e-02    8  2  2  1
 -1.442282930027e-09    8  2  2  2
  3.423384879501e-07    8  2  3  1
  2.540422641719e-11    8  2  3  2
 -1.538649594687e-09    8  2  3  3
  3.926169285172e-11    8  2  4  1
  3.166102561064e-04    8  2  4  2
 -4.250952432533e-08    8  2  4  3
 -3.135906349288e-10    8  2  4  4
 -1.257346493014e-11    8  2  5  1
 -2.689596362141e-04    8  2  5  2
 -1.404422377792e-03    8  2  5  3
 -1.026475435947e-11    8  2  5  4
 -3.834968287358e-11    8  2  5  5
 -4.146539988107e-03    8  2  6  1
  1.040022018192e-09    8  2  6  2
  1.410956133914e-09    8  2  6  3
 -7.492162338891e-04    8  2  6  4
  1.007287358583e-04    8  2  6  5
 -1.504739943015e-09    8  2  6  6
 -7.048813232375e-03    8  2  7  1
  1.595156376786e-09    8  2  7  2
 -7.409203620525e-10    8  2  7  3
 -1.273627304149e-03    8  2  7  4
 -3.646906978322e-05    8  2  7  5
 -1.255777219007e-10    8  2  7  6
 -1.519417470182e-09    8  2  7  7
 -1.322262104580e-09    8  2  8  1
  1.311902001400e-02    8  2  8  2
 -8.935817279828e-10    8  3  1  1
 -3.423385268707e-07    8  3  2  1
 -7.858521720131e-10    8  3  2  2
  1.361829501414e-02    8  3  3  1
  4.995552599193e-11    8  3  3  2
 -7.401929155363e-10    8  3  3  3
  2.163479153199e-11    8  3  4  1
  4.250952080964e-08    8  3  4  2
  3.166102561107e-04    8  3  4  3
 -1.691104196814e-10    8  3  4  4
 -1.725925244075e-11    8  3  5  1
 -1.404422377794e-03    8  3  5  2
  2.689596362200e-04    8  3  5  3
 -1.770161413841e-11    8  3  5  4
 -1.831183846683e-11    8  3  5  5
 -7.048813232360e-03    8  3  6  1
  5.398400230490e-10    8  3  6  2
  9.266578182164e-10    8  3  6  3
 -1.273627304150e-03    8  3  6  4
  3.646906979729e-05    8  3  6  5
 -8.996456499119e-10    8  3  6  6
  4.146539988073e-03    8  3  7  1
  6.287872945010e-10    8  3  7  2
 -3.518440612966e-10    8  3  7  3
  7.492162338916e-04    8  3  7  4
  1.007287358460e-04    8  3  7  5
 -3.072206482044e-12    8  3  7  6
 -6.498324814897e-10    8  3  7  7
 -6.807488347800e-10    8  3  8  1
  1.311902001401e-02    8  3  8  3
 -2.822679689505e-02    8  4  1  1
 -3.992948171495e-11    8  4  2  1
 -2.083806293971e-02    8  4  2  2
 -2.040936194735e-11    8  4  3  1
 -2.083806293965e-02    8  4  3  3
 -7.129059087175e-03    8  4  4  1
  7.233519439065e-11    8  4  4  2
  3.762686555852e-11    8  4  4  3
 -7.558842613162e-03    8  4  4  4
 -9.403019171366e-11    8  4  5  2
 -1.262284202055e-10    8  4  5  3
 -5.414535382410e-02    8  4  5  5
  7.489567083184e-11    8  4  6  1
 -5.807427269940e-03    8  4  6  2
 -9.874072412185e-03    8  4  6  3
 -9.644486872642e-12    8  4  6  4
 -1.218272131530e-10    8  4  6  5
 -3.827190554240e-02    8  4  6  6
  5.151991990776e-11    8  4  7  1
 -9.874072412222e-03    8  4  7  2
  5.807427269855e-03    8  4  7  3
 -1.762014841943e-12    8  4  7  4
 -1.192585445044e-11    8  4  7  5
 -3.827190554239e-02    8  4  7  7
  1.787890227025e-02    8  4  8  1
 -1.083082777318e-10    8  4  8  2
 -5.599286086725e-11    8  4  8  3
  1.588669647405e-02    8  4  8  4
 -2.068976878751e-11    8  5  2  1
 -4.403844773001e-04    8  5  2  2
 -2.619366971298e-11    8  5  3  1
 -2.302464533237e-03    8  5  3  2
  4.403844772988e-04    8  5  3  3
 -2.448943952129e-11    8  5  4  2
 -3.322237091392e-11    8  5  4  3
 -1.218482954094e-02    8  5  5  1
  4.930878163869e-12    8  5  5  3
 -6.172415688774e-03    8  5  5  4
 -1.261515984560e-11    8  5  6  1
 -2.817372999432e-03    8  5  6  2
 -1.005608386356e-03    8  5  6  3
 -7.259216949146e-11    8  5  6  4
 -2.173950027597e-11    8  5  6  5
 -5.161406771988e-03    8  5  6  6
 -2.795415283961e-12    8  5  7  1
  1.005608386341e-03    8  5  7  2
 -2.817372999400e-03    8  5  7  3
 -8.708838479799e-12    8  5  7  4
 -1.286420475858e-11    8  5  7  5
 -4.314536820598e-03    8  5  7  6
  5.161406771982e-03    8  5  7  7
 -8.181056924741e-11    8  5  8  2
 -8.874356379021e-11    8  5  8  3
  2.236325837096e-02    8  5  8  5
  4.350579269594e-09    8  6  1  1
 -6.586189542341e-03    8  6  2  1
  4.689395828778e-09    8  6  2  2
 -1.119551835073e-02    8  6  3  1
  2.299880611122e-10    8  6  3  2
  4.666740279052e-09    8  6  3  3
  2.289195673555e-10    8  6  4  1
 -2.415481477082e-04    8  6  4  2
 -4.107404572409e-04    8  6  4  3
 -5.667082709016e-10    8  6  4  4
 -6.582678534126e-11    8  6  5  1
  9.082812422412e-04    8  6  5  2
  3.246628681075e-04    8  6  5  3
 -6.748315050165e-11    8  6  5  4
 -6.418850498519e-11    8  6  5  5
  2.157532057057e-03    8  6  6  1
 -1.723232128597e-09    8  6  6  2
 -2.667177676664e-09    8  6  6  3
  2.759062027443e-04    8  6  6  4
  2.615914509359e-03    8  6  6  5
  3.257518269839e-09    8  6  6  6
 -2.956539032444e-07    8  6  7  1
 -2.444320140139e-09    8  6  7  2
  1.291023771643e-09    8  6  7  3
 -8.159049114299e-08    8  6  7  4
  2.185830896559e-03    8  6  7  5
  1.060603453246e-10    8  6  7  6
  2.925689357951e-09    8  6  7  7
  2.584099309644e-09    8  6  8  1
 -1.546716268246e-03    8  6  8  2
 -2.628487809971e-03    8  6  8  3
 -1.272404723902e-10    8  6  8  4
 -1.332442584530e-10    8  6  8  5
  1.430329795761e-02    8  6  8  6
  2.722971518572e-09    8  7  1  1
 -1.119551835074e-02    8  7  2  1
  3.141031715810e-09    8  7  2  2
  6.586189542304e-03    8  7  3  1
 -1.057787611386e-11    8  7  3  2
  2.684802639835e-09    8  7  3  3
  1.491096636887e-10    8  7  4  1
 -4.107404572411e-04    8  7  4  2
  2.415481477094e-04    8  7  4  3
 -3.165973366052e-10    8  7  4  4
 -1.038988382704e-11    8  7  5  1
 -3.246628680920e-04    8  7  5  2
  9.082812422285e-04    8  7  5  3
 -5.746769552674e-12    8  7  5  4
  2.382784595559e-11    8  7  5  5
  2.956539352613e-07    8  7  6  1
 -1.042333948720e-09    8  7  6  2
 -1.377099720640e-09    8  7  6  3
  8.159048734298e-08    8  7  6  4
  2.185830896563e-03    8  7  6  5
  1.868796662325e-09    8  7  6  6
  2.157532057052e-03    8  7  7  1
 -1.811636036755e-09    8  7  7  2
  8.194254096575e-10    8  7  7  3
  2.759062027435e-04    8  7  7  4
 -2.615914509341e-03    8  7  7  5
  1.621410342702e-10    8  7  7  6
  2.072805846208e-09    8  7  7  7
  1.567338460338e-09    8  7  8  1
 -2.628487809960e-03    8  7  8  2
  1.546716268272e-03    8  7  8  3
 -8.666099993684e-11    8  7  8  4
 -2.347693156977e-11    8  7  8  5
  1.430329795761e-02    8  7  8  7
  5.113542654067e-01    8  8  1  1
 -1.400118200950e-10    8  8  2  1
  4.368928470628e-01    8  8  2  2
 -9.318131331926e-11    8  8  3  1
  4.368928470627e-01    8  8  3  3
  2.921323133013e-02    8  8  4  1
  5.194246852966e-10    8  8  4  2
  2.714771391249e-10    8  8  4  3
  2.955235234843e-01    8  8  4  4
 -1.002324102668e-10    8  8  5  2
 -9.796668305391e-11    8  8  5  3
  5.574566851384e-01    8  8  5  5
  4.792241522933e-10    8  8  6  1
  1.326240118896e-03    8  8  6  2
  2.267793383836e-03    8  8  6  3
 -2.280304119483e-10    8  8  6  4
 -1.725553251772e-10    8  8  6  5
  5.134609585700e-01    8  8  6  6
  2.903013088085e-10    8  8  7  1
  2.267793384090e-03    8  8  7  2
 -1.326240118302e-03    8  8  7  3
 -1.801118007701e-10    8  8  7  4
 -2.650931650465e-11    8  8  7  5
  5.134609585699e-01    8  8  7  7
 -5.756792357663e-02    8  8  8  1
 -1.166443901697e-09    8  8  8  2
 -6.002027067640e-10    8  8  8  3
 -5.571766889701e-02    8  8  8  4
  1.770262174698e-09    8  8  8  6
  1.148500228351e-09    8  8  8  7
  6.286056619610e-01    8  8  8  8
 -1.244935721996e-01    9  1  1  1
  2.093259299087e-10    9  1  2  1
 -1.130798814861e-01    9  1  2  2
  1.100032758875e-10    9  1  3  1
 -1.130798814865e-01    9  1  3  3
 -6.104016847023e-03    9  1  4  1
 -9.581027163778e-10    9  1  4  2
 -4.815249702820e-10    9  1  4  3
 -8.840890747106e-03    9  1  4  4
 -8.506887887358e-11    9  1  5  2
 -7.262587095789e-11    9  1  5  3
 -1.479337662275e-02    9  1  5  5
 -8.267047775703e-10    9  1  6  1
  4.213200595957e-02    9  1  6  2
  7.162020970433e-02    9  1  6  3
  7.964982113614e-10    9  1  6  4
  1.087849615286e-10    9  1  6  5
 -8.678243201581e-02    9  1  6  6
 -5.356698423110e-10    9  1  7  1
  7.162020970430e-02    9  1  7  2
 -4.213200595966e-02    9  1  7  3
  4.880616431621e-10    9  1  7  4
  6.282177494430e-12    9  1  7  5
 -8.678243201581e-02    9  1  7  7
 -6.803928511432e-02    9  1  8  1
  2.704242126906e-09    9  1  8  2
  1.419483211460e-09    9  1  8  3
 -2.015819716237e-03    9  1  8  4
 -2.726045866688e-09    9  1  8  6
 -1.750835391227e-09    9  1  8  7
 -6.533798154470e-02    9  1  8  8
  1.174153759515e-01    9  1  9  1
  5.013913155191e-09    9  2  1  1
 -3.352258320121e-03    9  2  2  1
  4.306408038149e-09    9  2  2  2
 -1.946985845354e-07    9  2  3  1
 -7.753337127840e-11    9  2  3  2
  4.632102934464e-09    9  2  3  3
 -3.951752865071e-11    9  2  4  1
 -1.341479173133e-03    9  2  4  2
 -1.005263838114e-09    9  2  4  3
  9.128233296629e-10    9  2  4  4
 -6.812656840445e-12    9  2  5  1
 -2.745533616638e-04    9  2  5  2
 -1.435011001705e-03    9  2  5  3
  1.492082053099e-10    9  2  5  4
 -6.982574436692e-10    9  2  5  5
  4.992909465372e-03    9  2  6  1
 -3.387811531845e-09    9  2  6  2
 -4.662686630706e-09    9  2  6  3
 -6.261105270388e-04    9  2  6  4
 -2.155967319221e-03    9  2  6  5
  4.296800252515e-09    9  2  6  6
  8.487553842603e-03    9  2  7  1
 -5.237904427654e-09    9  2  7  2
  2.461803147201e-09    9  2  7  3
 -1.064428736596e-03    9  2  7  4
  7.689446876792e-04    9  2  7  5
  3.989165967733e-10    9  2  7  6
  4.333493040662e-09    9  2  7  7
  4.267283205245e-09    9  2  8  1
 -4.084650709484e-03    9  2  8  2
 -2.543293190808e-07    9  2  8  3
  5.900880849135e-10    9  2  8  4
  1.356489756348e-11    9  2  8  5
  2.026045123768e-03    9  2  8  6
  3.444266336215e-03    9  2  8  7
  2.368152201100e-09    9  2  8  8
 -8.186616853611e-09    9  2  9  1
  1.600895442364e-02    9  2  9  2
  2.547776989652e-09    9  3  1  1
  1.946986299963e-07    9  3  2  1
  2.348492032290e-09    9  3  2  2
 -3.352258320179e-03    9  3  3  1
 -1.611260236368e-10    9  3  3  2
  2.192983177948e-09    9  3  3  3
 -1.796913739406e-11    9  3  4  1
  1.005259243338e-09    9  3  4  2
 -1.341479173127e-03    9  3  4  3
  4.940886019523e-10    9  3  4  4
  3.488028236460e-12    9  3  5  1
 -1.435011001706e-03    9  3  5  2
  2.745533616484e-04    9  3  5  3
  1.927281852077e-10    9  3  5  4
 -4.146784105066e-10    9  3  5  5
  8.487553842619e-03    9  3  6  1
 -1.767505563048e-09    9  3  6  2
 -3.018927906067e-09    9  3  6  3
 -1.064428736595e-03    9  3  6  4
 -7.689446876764e-04    9  3  6  5
  2.575603795275e-09    9  3  6  6
 -4.992909465416e-03    9  3  7  1
 -2.092726911485e-09    9  3  7  2
  1.191186418565e-09    9  3  7  3
  6.261105270372e-04    9  3  7  4
 -2.155967319212e-03    9  3  7  5
  1.506363744061e-11    9  3  7  6
  1.777662399109e-09    9  3  7  7
  2.175193268168e-09    9  3  8  1
  2.543293411764e-07    9  3  8  2
 -4.084650709509e-03    9  3  8  3
  3.084115978964e-10    9  3  8  4
  6.380134749716e-12    9  3  8  5
  3.444266336220e-03    9  3  8  6
 -2.026045123784e-03    9  3  8  7
  1.192206287442e-09    9  3  8  8
 -4.215590014500e-09    9  3  9  1
  1.600895442367e-02    9  3  9  3
 -3.153665925189e-02    9  4  1  1
 -6.930459651997e-11    9  4  2  1
 -2.820367820888e-02    9  4  2  2
 -2.675832889654e-11    9  4  3  1
 -2.820367820890e-02    9  4  3  3
 -2.757094837862e-03    9  4  4  1
  2.268905499755e-11    9  4  4  2
  1.321793048029e-11    9  4  4  3
 -4.337108030627e-03    9  4  4  4
  3.937628406213e-10    9  4  5  2
  5.082010180137e-10    9  4  5  3
 -2.452343288201e-02    9  4  5  5
 -4.070463996074e-10    9  4  6  1
  2.104029507735e-03    9  4  6  2
  3.575756141692e-03    9  4  6  3
  9.225102152327e-11    9  4  6  4
  5.935841278727e-10    9  4  6  5
 -2.855780240306e-02    9  4  6  6
 -2.646246775619e-10    9  4  7  1
  3.575756141683e-03    9  4  7  2
 -2.104029507752e-03    9  4  7  3
  5.599898623268e-11    9  4  7  4
  6.863257454946e-11    9  4  7  5
 -2.855780240306e-02    9  4  7  7
 -2.899181494732e-03    9  4  8  1
 -4.722483639888e-11    9  4  8  2
 -2.682501264625e-11    9  4  8  3
  5.132232123456e-03    9  4  8  4
 -1.083676139048e-10    9  4  8  6
 -5.949602219135e-11    9  4  8  7
 -3.186714892441e-02    9  4  8  8
  6.289470214053e-03    9  4  9  1
 -9.828191925987e-11    9  4  9  2
 -4.282149354169e-11    9  4  9  3
  3.432466611420e-03    9  4  9  4
  5.657076997153e-11    9  5  2  1
 -2.796371131524e-04    9  5  2  2
  7.576787257465e-11    9  5  3  1
 -1.457119057572e-03    9  5  3  2
  2.796371130921e-04    9  5  3  3
  1.013057419568e-10    9  5  4  2
  1.305570473820e-10    9  5  4  3
 -1.306437465082e-03    9  5  5  1
 -9.191557133324e-12    9  5  5  2
 -2.945180326565e-11    9  5  5  3
 -1.805518968125e-03    9  5  5  4
 -1.989481777197e-11    9  5  6  1
 -1.120318470637e-03    9  5  6  2
 -3.985776111406e-04    9  5  6  3
  1.820004035795e-10    9  5  6  4
  7.552554209970e-11    9  5  6  5
 -1.641810861961e-03    9  5  6  6
  3.985776111888e-04    9  5  7  2
 -1.120318470655e-03    9  5  7  3
  2.174917296471e-11    9  5  7  4
  4.709519472119e-11    9  5  7  5
 -1.375882835165e-03    9  5  7  6
  1.641810861966e-03    9  5  7  7
  1.628458933807e-10    9  5  8  2
  1.702884819980e-10    9  5  8  3
  3.707630226225e-03    9  5  8  5
  3.443398838381e-10    9  5  8  6
  6.639193015743e-11    9  5  8  7
  1.297696030309e-10    9  5  9  2
  1.439792203314e-10    9  5  9  3
  1.376835807903e-03    9  5  9  5
 -1.408743092432e-08    9  6  1  1
  7.441014145778e-03    9  6  2  1
 -1.484559833966e-08    9  6  2  2
  1.264942382050e-02    9  6  3  1
 -7.238469819290e-10    9  6  3  2
 -1.477763572013e-08    9  6  3  3
 -8.362045078016e-10    9  6  4  1
 -4.300736252941e-04    9  6  4  2
 -7.313145111712e-04    9  6  4  3
  1.565962937724e-09    9  6  4  4
  4.997222549111e-11    9  6  5  1
 -1.633722657879e-03    9  6  5  2
 -5.826094583733e-04    9  6  5  3
  4.708483015712e-10    9  6  5  4
 -2.254183442640e-10    9  6  5  5
 -7.168481174014e-03    9  6  6  1
  5.388889061389e-09    9  6  6  2
  8.383532100845e-09    9  6  6  3
 -2.317572518151e-03    9  6  6  4
 -1.533158231173e-03    9  6  6  5
 -1.063083561252e-08    9  6  6  6
  4.421493551260e-08    9  6  7  1
  7.703555671622e-09    9  6  7  2
 -4.059787423409e-09    9  6  7  3
  1.852796702681e-07    9  6  7  4
 -1.282980548291e-03    9  6  7  5
 -3.310943134412e-10    9  6  7  6
 -9.593057614573e-09    9  6  7  7
 -7.831565018830e-09    9  6  8  1
  4.121354808601e-03    9  6  8  2
  7.005835806867e-03    9  6  8  3
  4.060018073946e-10    9  6  8  4
 -6.250494899971e-11    9  6  8  5
 -4.966264900789e-03    9  6  8  6
  2.480976372714e-07    9  6  8  7
 -5.883854232445e-09    9  6  8  8
  8.785201387260e-09    9  6  9  1
 -3.391314114987e-03    9  6  9  2
 -5.764861978632e-03    9  6  9  3
  6.950707881646e-10    9  6  9  4
  2.760110565579e-10    9  6  9  5
  1.385180292311e-02    9  6  9  6
 -8.799983896956e-09    9  7  1  1
  1.264942382048e-02    9  7  2  1
 -9.928773608766e-09    9  7  2  2
 -7.441014145848e-03    9  7  3  1
  3.170837845618e-11    9  7  3  2
 -8.494697361777e-09    9  7  3  3
 -5.457946078819e-10    9  7  4  1
 -7.313145111724e-04    9  7  4  2
  4.300736252922e-04    9  7  4  3
  8.627970295492e-10    9  7  4  4
  5.001172708056e-12    9  7  5  1
  5.826094583754e-04    9  7  5  2
 -1.633722657873e-03    9  7  5  3
  6.019216446061e-11    9  7  5  4
 -3.265806767926e-10    9  7  5  5
 -4.421496478925e-08    9  7  6  1
  3.297632286373e-09    9  7  6  2
  4.333667979744e-09    9  7  6  3
 -1.852796586254e-07    9  7  6  4
 -1.282980548289e-03    9  7  6  5
 -6.116581187757e-09    9  7  6  6
 -7.168481174011e-03    9  7  7  1
  5.677633271488e-09    9  7  7  2
 -2.615558633122e-09    9  7  7  3
 -2.317572518155e-03    9  7  7  4
  1.533158231189e-03    9  7  7  5