 &FCI NORB=6 ,NELEC=5 ,MS2=3,
  ORBSYM=1,1,1,1,1,1,
  ISYM=1,
 &END
  2.540509009111e-01    1  1  1  1
 -1.904088391987e-05    2  1  1  1
  8.016945405498e-03    2  1  2  1
  3.218375805076e-01    2  2  1  1
 -3.228823077419e-04    2  2  2  1
  7.347723692804e-01    2  2  2  2
  9.207972950902e-05    3  1  1  1
  4.612065924930e-07    3  1  2  1
 -4.523688304683e-04    3  1  2  2
  7.950890715275e-03    3  1  3  1
  2.535348797289e-07    3  2  1  1
 -2.120840238918e-03    3  2  2  1
 -1.900711430101e-07    3  2  2  2
  1.637138479990e-04    3  2  3  1
  2.859283089238e-02    3  2  3  2
  3.216739730192e-01    3  3  1  1
  9.827596072171e-05    3  3  2  1
  6.776697370614e-01    3  3  2  2
  1.956782111646e-03    3  3  3  1
 -2.905200014509e-06    3  3  3  2
  7.348027588196e-01    3  3  3  3
 -1.193818427138e-04    4  1  1  1
  1.274507563006e-06    4  1  2  1
 -2.478801726730e-03    4  1  2  2
  9.685400691361e-05    4  1  3  1
  9.452199585294e-05    4  1  3  2
 -2.450036149235e-03    4  1  3  3
  7.872800877568e-03    4  1  4  1
  2.014993774200e-06    4  2  1  1
 -7.909911644723e-05    4  2  2  1
 -7.015679522849e-07    4  2  2  2
  9.473376846888e-05    4  2  3  1
  1.036322491275e-05    4  2  3  2
  9.737717993547e-07    4  2  3  3
  7.331610148136e-05    4  2  4  1
  2.854812508846e-02    4  2  4  2
  2.401729776772e-04    4  3  1  1
  9.510290265894e-05    4  3  2  1
 -9.017827608066e-05    4  3  2  2
 -5.041300855495e-05    4  3  3  1
  4.714408830599e-07    4  3  3  2
 -2.166860549421e-05    4  3  3  3
  2.332646945155e-03    4  3  4  1
  1.157494994904e-06    4  3  4  2
  2.850772284555e-02    4  3  4  3
  3.214797867533e-01    4  4  1  1
  7.680665859854e-06    4  4  2  1
  6.777066536360e-01    4  4  2  2
  3.998686407778e-03    4  4  3  1
  1.468951524297e-06    4  4  3  2
  6.777379470482e-01    4  4  3  3
 -2.990078572733e-03    4  4  4  1
  2.743776413035e-06    4  4  4  2
  2.919586847384e-05    4  4  4  3
  7.348247161426e-01    4  4  4  4
  5.866655677465e-02    5  1  5  1
 -3.303073226742e-05    5  2  5  1
  1.012066827589e-02    5  2  5  2
 -1.627573592982e-02    5  3  5  1
 -1.472262320751e-04    5  3  5  2
  1.014561635017e-02    5  3  5  3
  4.191822355101e-04    5  4  5  1
 -7.377565393762e-05    5  4  5  2
 -1.863118442606e-04    5  4  5  3
  1.764796163691e-03    5  4  5  4
  2.502920159911e-01    5  5  1  1
 -3.637790828277e-05    5  5  2  1
  3.146657755163e-01    5  5  2  2
 -8.364418929319e-03    5  5  3  1
 -2.249249380607e-04    5  5  3  2
  3.146371434006e-01    5  5  3  3
 -2.278353411865e-04    5  5  4  1
 -1.145433596775e-04    5  5  4  2
 -2.828147149723e-04    5  5  4  3
  3.018163923064e-01    5  5  4  4
  2.676507214862e-01    5  5  5  5
 -6.912975388246e-06    6  1  5  1
  1.327648010755e-02    6  1  5  2
 -2.526544737945e-05    6  1  5  3
  3.608441393122e-05    6  1  5  4
  5.867278050489e-02    6  1  6  1
  1.327651043401e-02    6  2  5  1
 -2.001124758777e-04    6  2  5  2
 -5.374877210813e-03    6  2  5  3
  1.145551918851e-03    6  2  5  4
 -1.824985925504e-05    6  2  6  1
  7.369006770454e-03    6  2  6  2
 -2.569171839205e-05    6  3  5  1
 -1.338638607482e-03    6  3  5  2
  1.372784463973e-04    6  3  5  3
  7.492214481807e-05    6  3  5  4
  5.702990230708e-03    6  3  6  1
  1.300521423546e-04    6  3  6  2
  4.709983989830e-03    6  3  6  3
  3.571561522359e-05    6  4  5  1
  3.854483495338e-03    6  4  5  2
  6.063384687476e-05    6  4  5  3
  6.819627949225e-05    6  4  5  4
  1.521767109497e-02    6  4  6  1
  1.033920020245e-04    6  4  6  2
  4.061292826719e-03    6  4  6  3
  9.946051937488e-03    6  4  6  4
 -4.980309659166e-06    6  5  1  1
  7.082251643117e-03    6  5  2  1
 -3.194534786523e-04    6  5  2  2
 -1.290947298449e-05    6  5  3  1
 -5.158918527957e-03    6  5  3  2
  2.098320251205e-04    6  5  3  3
  1.883294925290e-05    6  5  4  1
  3.808064190357e-03    6  5  4  2
  1.053559114772e-04    6  5  4  3
  1.024557283462e-04    6  5  4  4
 -1.684222858422e-06    6  5  5  5
  1.598725901117e-02    6  5  6  5
  2.502932436847e-01    6  6  1  1
 -2.763952956699e-05    6  6  2  1
  3.103895825807e-01    6  6  2  2
  3.359482751964e-03    6  6  3  1
  2.006524060791e-04    6  6  3  2
  3.063634761764e-01    6  6  3  3
  7.666720702770e-03    6  6  4  1
  1.571726218728e-04    6  6  4  2
  6.247329801892e-03    6  6  4  3
  3.143470682263e-01    6  6  4  4
  2.356738328908e-01    6  6  5  5
 -1.646853574700e-06    6  6  6  5
  2.676451433018e-01    6  6  6  6
 -1.438938314427e+00    1  1  0  0
  2.017624319647e-04    2  1  0  0
 -2.437758516809e+00    2  2  0  0
 -4.186114357779e-03    3  1  0  0
  5.694790884570e-07    3  2  0  0
 -2.437751298144e+00    3  3  0  0
  5.992854940735e-03    4  1  0  0
 -2.395442491666e-06    4  2  0  0
 -1.470737822301e-05    4  3  0  0
 -2.437733166626e+00    4  4  0  0
 -1.270322587671e+00    5  5  0  0
  8.747442459306e-06    6  5  0  0
 -1.270306837617e+00    6  6  0  0
    -64.611189804939   0  0  0  0
