#INFO: **** input file is /projects/bamu3429/BENCHMARK/fresh_atoms/MRPT/vdz/atoms/V_0/mrpt.py ****
import json
from pyscf import gto,scf,mcscf, fci, lo, ci, cc
from pyscf.scf import ROHF, UHF,ROKS
import numpy as np
import pandas as pd

# THIS IS WERE IT STARTS ====================================

df=json.load(open("../../../trail.json"))

spins={'Sc':1, 'Ti':2, 'V':3, 'Cr':6, 'Mn':5, 'Fe':4, 'Cu':1}

nd={'Sc':(1,0), 'Ti':(2,0), 'V':(3,0), 'Cr':(5,0), 'Mn':(5,0), 'Fe':(5,1), 'Cu':(5,5)}

cas={'Sc':3, 'Ti':4, 'V':5, 'Cr':6, 'Mn':7, 'Fe':8, 'Cu':11}

datacsv={}
for nm in ['atom','charge','method','basis','pseudopotential','hf',
           'totalenergy','totalenergy-stocherr','totalenergy-syserr']:
  datacsv[nm]=[]

basis='vdz'
el='V'
charge=0

mol=gto.Mole()
mol.ecp={}
mol.basis={}
mol.ecp[el]=gto.basis.parse_ecp(df[el]['ecp'])
mol.basis[el]=gto.basis.parse(df[el][basis])
mol.charge=charge
if el == 'Cr' or el == 'Cu':
  mol.spin=spins[el]-charge
else:
  mol.spin=spins[el]+charge
mol.build(atom="%s 0. 0. 0."%el,verbose=4)

m=ROHF(mol)
m.level_shift=1000.0
dm=m.from_chk("../../../../HF/atoms/"+el+basis+str(charge)+".chk")
hf=m.kernel(dm)
m.analyze()

from pyscf.shciscf import shci
mc = shci.SHCISCF(m, 6, cas[el]-charge)
#mc.fcisolver.conv_tol = 1e-14
mc.fcisolver.mpiprefix="srun -n20"
mc.fcisolver.num_thrds=12
mc.verbose = 4
cas=mc.kernel()[0]
 
from pyscf.icmpspt import icmpspt
pt=icmpspt.icmpspt(mc,rdmM=500, PTM=1000,\
                          pttype="MRLCC",\
                          third_order=True,\
                          fully_ic=True,\
                          do_dm4=True)

datacsv['atom'].append(el)
datacsv['charge'].append(charge)
datacsv['method'].append('MRPT')
datacsv['basis'].append(basis)
datacsv['pseudopotential'].append('trail')
datacsv['hf'].append(hf)
datacsv['totalenergy'].append(cas+pt)
datacsv['totalenergy-stocherr'].append(0.0)
datacsv['totalenergy-syserr'].append(0.0)
pd.DataFrame(datacsv).to_csv(el+".csv",index=False)

#INFO: ******************** input file end ********************


System: ('Linux', 'bnode0302.rc.int.colorado.edu', '3.10.0-514.41.1.el7.x86_64', '#1 SMP Wed Jan 17 10:26:16 EST 2018', 'x86_64', 'x86_64')  Threads 28
Python 2.7.11 (default, Mar 22 2016, 01:42:54) 
[GCC Intel(R) C++ gcc 4.8 mode]
numpy 1.11.1  scipy 0.17.1
Date: Wed Apr 18 11:27:08 2018
PySCF version 1.4.6
PySCF path  /projects/bamu3429/softwares/pyscf_uptodate/pyscf
GIT ORIG_HEAD f3591ef22170896a4cdc2aadaa6f5da388ffcadb
GIT HEAD      ref: refs/heads/master
GIT master branch  1847583fb1d2472321833d3c71c8b7008e5fabf5

[INPUT] VERBOSE 4
[INPUT] num atoms = 1
[INPUT] num electrons = 13
[INPUT] charge = 0
[INPUT] spin (= nelec alpha-beta = 2S) = 3
[INPUT] symmetry False subgroup None
[INPUT]  1 V      0.000000000000   0.000000000000   0.000000000000 AA    0.000000000000   0.000000000000   0.000000000000 Bohr
[INPUT] ---------------- BASIS SET ---------------- 
[INPUT] l, kappa, [nprim/nctr], expnt,             c_1 c_2 ...
[INPUT] V
[INPUT] 0    0    [12   /1   ]  33.51168105       0.006845
                                15.38532624       -0.214557
                                9.96227367        1.392425
                                8.05943355        -1.485929
                                3.6960334         -0.026725
                                1.49220279        0.457681
                                0.84622253        0.506886
                                0.43855031        0.249453
                                0.2102388         0.007109
                                0.1022422         0.007055
                                0.04832462        -0.000443
                                0.02406855        0.001278
[INPUT] 0    0    [12   /1   ]  33.51168105       -0.001211
                                15.38532624       0.04697
                                9.96227367        -0.329808
                                8.05943355        0.363635
                                3.6960334         0.005985
                                1.49220279        -0.140857
                                0.84622253        -0.203846
                                0.43855031        -0.200776
                                0.2102388         0.022081
                                0.1022422         0.429765
                                0.04832462        0.534383
                                0.02406855        0.187984
[INPUT] 0    0    [12   /1   ]  33.51168105       -0.006871
                                15.38532624       0.226397
                                9.96227367        -1.640881
                                8.05943355        1.900984
                                3.6960334         -0.211293
                                1.49220279        -1.475616
                                0.84622253        0.220931
                                0.43855031        0.532517
                                0.2102388         0.907357
                                0.1022422         0.106097
                                0.04832462        -0.528638
                                0.02406855        -0.33681
[INPUT] 0    0    [1    /1   ]  0.02406855           1
[INPUT] 0    0    [1    /1   ]  0.01198757           1
[INPUT] 1    0    [12   /1   ]  49.83779697       0.000413
                                25.60370921       -0.003442
                                10.40982442       0.097153
                                7.71483683        -0.206888
                                4.49868206        0.083281
                                2.48212838        0.186621
                                1.4387019         0.395144
                                0.72090362        0.377883
                                0.3443302         0.134629
                                0.13162828        0.011074
                                0.05284968        -0.000426
                                0.02121951        0.000256
[INPUT] 1    0    [12   /1   ]  49.83779697       -2.9e-05
                                25.60370921       0.000502
                                10.40982442       -0.020934
                                7.71483683        0.047431
                                4.49868206        -0.020701
                                2.48212838        -0.057583
                                1.4387019         -0.106451
                                0.72090362        -0.140229
                                0.3443302         0.043257
                                0.13162828        0.438687
                                0.05284968        0.536785
                                0.02121951        0.12546
[INPUT] 1    0    [12   /1   ]  49.83779697       9e-05
                                25.60370921       -0.002342
                                10.40982442       0.125465
                                7.71483683        -0.321923
                                4.49868206        0.19446
                                2.48212838        0.693755
                                1.4387019         0.323454
                                0.72090362        -0.875978
                                0.3443302         -0.540174
                                0.13162828        0.69685
                                0.05284968        0.327275
                                0.02121951        -0.009315
[INPUT] 1    0    [1    /1   ]  0.02121951           1
[INPUT] 1    0    [1    /1   ]  0.00851977           1
[INPUT] 2    0    [10   /1   ]  34.27504048       0.000678
                                16.12418185       -0.017858
                                9.59474528        0.107867
                                3.8690861         0.173949
                                1.82728072        0.26883
                                0.85799457        0.321303
                                0.38035078        0.300128
                                0.15533087        0.170792
                                0.06318167        0.035148
                                0.03734397        0.003549
[INPUT] 2    0    [10   /1   ]  34.27504048       0.000411
                                16.12418185       0.011699
                                9.59474528        -0.096988
                                3.8690861         -0.225228
                                1.82728072        -0.395141
                                0.85799457        -0.078275
                                0.38035078        0.3045
                                0.15533087        0.474064
                                0.06318167        0.20462
                                0.03734397        0.016541
[INPUT] 2    0    [1    /1   ]  0.03734397           1
[INPUT] 2    0    [1    /1   ]  0.02207241           1
[INPUT] 3    0    [1    /1   ]  1.853039             1
[INPUT] 3    0    [1    /1   ]  1.0952517            1
nuclear repulsion = 0
number of shells = 16
number of NR pGTOs = 276
number of NR cGTOs = 54
basis = {'V': [[0, [33.51168105, 0.006845], [15.38532624, -0.214557], [9.96227367, 1.392425], [8.05943355, -1.485929], [3.6960334, -0.026725], [1.49220279, 0.457681], [0.84622253, 0.506886], [0.43855031, 0.249453], [0.2102388, 0.007109], [0.1022422, 0.007055], [0.04832462, -0.000443], [0.02406855, 0.001278]], [0, [33.51168105, -0.001211], [15.38532624, 0.04697], [9.96227367, -0.329808], [8.05943355, 0.363635], [3.6960334, 0.005985], [1.49220279, -0.140857], [0.84622253, -0.203846], [0.43855031, -0.200776], [0.2102388, 0.022081], [0.1022422, 0.429765], [0.04832462, 0.534383], [0.02406855, 0.187984]], [0, [33.51168105, -0.006871], [15.38532624, 0.226397], [9.96227367, -1.640881], [8.05943355, 1.900984], [3.6960334, -0.211293], [1.49220279, -1.475616], [0.84622253, 0.220931], [0.43855031, 0.532517], [0.2102388, 0.907357], [0.1022422, 0.106097], [0.04832462, -0.528638], [0.02406855, -0.33681]], [0, [0.02406855, 1.0]], [0, [0.01198757, 1.0]], [1, [49.83779697, 0.000413], [25.60370921, -0.003442], [10.40982442, 0.097153], [7.71483683, -0.206888], [4.49868206, 0.083281], [2.48212838, 0.186621], [1.4387019, 0.395144], [0.72090362, 0.377883], [0.3443302, 0.134629], [0.13162828, 0.011074], [0.05284968, -0.000426], [0.02121951, 0.000256]], [1, [49.83779697, -2.9e-05], [25.60370921, 0.000502], [10.40982442, -0.020934], [7.71483683, 0.047431], [4.49868206, -0.020701], [2.48212838, -0.057583], [1.4387019, -0.106451], [0.72090362, -0.140229], [0.3443302, 0.043257], [0.13162828, 0.438687], [0.05284968, 0.536785], [0.02121951, 0.12546]], [1, [49.83779697, 9e-05], [25.60370921, -0.002342], [10.40982442, 0.125465], [7.71483683, -0.321923], [4.49868206, 0.19446], [2.48212838, 0.693755], [1.4387019, 0.323454], [0.72090362, -0.875978], [0.3443302, -0.540174], [0.13162828, 0.69685], [0.05284968, 0.327275], [0.02121951, -0.009315]], [1, [0.02121951, 1.0]], [1, [0.00851977, 1.0]], [2, [34.27504048, 0.000678], [16.12418185, -0.017858], [9.59474528, 0.107867], [3.8690861, 0.173949], [1.82728072, 0.26883], [0.85799457, 0.321303], [0.38035078, 0.300128], [0.15533087, 0.170792], [0.06318167, 0.035148], [0.03734397, 0.003549]], [2, [34.27504048, 0.000411], [16.12418185, 0.011699], [9.59474528, -0.096988], [3.8690861, -0.225228], [1.82728072, -0.395141], [0.85799457, -0.078275], [0.38035078, 0.3045], [0.15533087, 0.474064], [0.06318167, 0.20462], [0.03734397, 0.016541]], [2, [0.03734397, 1.0]], [2, [0.02207241, 1.0]], [3, [1.853039, 1.0]], [3, [1.0952517, 1.0]]]}
ecp = {'V': [10, [[-1, [[], [[8.85341849, 13.0]], [[14.12393489, 1867.96836466], [10.01469125, -417.2185296], [16.87739786, -6735.41034163], [17.42661229, 5248.9519915]], [[8.14766139, 115.09444037]]]], [0, [[], [], [[10.17161428, 8429.89768085], [6.62108601, -4738.0869454], [6.4407206, 3874.69004628], [11.26222343, -9817.80452096], [19.82459033, -286.16022228], [14.35299938, 2571.80634504]], []]], [1, [[], [], [[10.25117807, 40641.17869487], [10.49106006, -41559.00487832], [13.7869188, 3357.33248976], [16.29479305, -896.47755921], [7.79003518, -1904.45864373], [6.62830213, 382.3757783]], []]], [2, [[], [], [[8.601477, 4615.05527413], [10.66674565, -3671.60281242], [15.19026557, 4480.50015686], [8.06189603, -2591.12632756], [19.82232597, 2587.18683714], [18.22318105, -5431.92186158]], []]]]]}
CPU time:         3.77


******** <class 'pyscf.scf.rohf.ROHF'> flags ********
method = ROHF
initial guess = minao
damping factor = 0
level shift factor = 1000.0
DIIS = <class 'pyscf.scf.diis.CDIIS'>
DIIS start cycle = 1
DIIS space = 8
SCF tol = 1e-09
SCF gradient tol = None
max. SCF cycles = 50
direct_scf = True
direct_scf_tol = 1e-13
chkfile to save SCF result = /rc_scratch/bamu3429/tmpKhQfVT
max_memory 4000 MB (current use 169 MB)
num. doubly occ = 5  num. singly occ = 3
Set gradient conv threshold to 3.16228e-05
init E= -70.6952596047294
  HOMO = 499.88818661571  LUMO = 1000.01379897957
cycle= 1 E= -70.6952596047294  delta_E= 2.84e-14  |g|= 4.74e-06  |ddm|= 1.26e-08
  HOMO = -0.111813384135902  LUMO = 0.0137989795658031
Extra cycle  E= -70.695259604734  delta_E= -4.65e-12  |g|= 9.65e-07  |ddm|= 1.19e-05
converged SCF energy = -70.695259604734
**** MO energy ****
                Roothaan           | alpha              | beta
MO #1   energy= -3.22895010191409  | -3.34048579453957  | -3.11741440928861  occ= 2
MO #2   energy= -2.03753873964085  | -2.17470249065148  | -1.90037498863022  occ= 2
MO #3   energy= -2.03753873775462  | -2.17470250081091  | -1.90037497469832  occ= 2
MO #4   energy= -2.03753873609725  | -2.17470251126655  | -1.90037496092795  occ= 2
MO #5   energy= -0.233308466935713 | -0.244975985682089 | -0.221640948189335 occ= 2
MO #6   energy= -0.111813396452178 | -0.508590304047372 | 0.284963711894038  occ= 1
MO #7   energy= -0.111813390401918 | -0.508590295454405 | 0.284963715550033  occ= 1
MO #8   energy= -0.111813384135902 | -0.508590286785253 | 0.284963719466561  occ= 1
MO #9   energy= 0.0137989795658031 | 0.0130277600293076 | 0.0145701991022963 occ= 0
MO #10  energy= 0.0137989797936359 | 0.0130277602226575 | 0.0145701993646158 occ= 0
MO #11  energy= 0.0137989799860323 | 0.0130277603829287 | 0.0145701995891368 occ= 0
MO #12  energy= 0.0266496849362113 | 0.0260539575921554 | 0.0272454122802668 occ= 0
MO #13  energy= 0.0421111755400977 | 0.0398594782816296 | 0.0443628727985637 occ= 0
MO #14  energy= 0.0421111760872744 | 0.0398594786228111 | 0.0443628735517383 occ= 0
MO #15  energy= 0.0421111766070668 | 0.0398594789425655 | 0.0443628742715665 occ= 0
MO #16  energy= 0.0622752675598034 | 0.0620080882753026 | 0.0625424468443035 occ= 0
MO #17  energy= 0.0622752676064046 | 0.0620080883226745 | 0.0625424468901341 occ= 0
MO #18  energy= 0.0635437834978177 | 0.0633804537861975 | 0.0637071312647937 occ= 0
MO #19  energy= 0.0635437835304538 | 0.0633804538158516 | 0.0637071312975814 occ= 0
MO #20  energy= 0.0635437836132275 | 0.0633804538947763 | 0.0637071313821793 occ= 0
MO #21  energy= 0.13151361739115   | 0.119348823898073  | 0.143678410884226  occ= 0
MO #22  energy= 0.131513617501992  | 0.119348824009134  | 0.14367841099485   occ= 0
MO #23  energy= 0.180467329295918  | 0.176380594966304  | 0.184554058716887  occ= 0
MO #24  energy= 0.180467329724432  | 0.176380595311809  | 0.184554059186154  occ= 0
MO #25  energy= 0.180467330299696  | 0.176380595807648  | 0.184554059810925  occ= 0
MO #26  energy= 0.187703242989816  | 0.178109955661495  | 0.197296530318138  occ= 0
MO #27  energy= 0.187703244439808  | 0.178109956212874  | 0.197296532666741  occ= 0
MO #28  energy= 0.18770324579824   | 0.178109956673962  | 0.197296534922519  occ= 0
MO #29  energy= 0.210683327208927  | 0.205798351409428  | 0.215568303008434  occ= 0
MO #30  energy= 0.237398910642877  | 0.217616313928966  | 0.257181507356787  occ= 0
MO #31  energy= 0.237398910774923  | 0.217616314058146  | 0.257181507491699  occ= 0
MO #32  energy= 1.1123186581845    | 1.03813614364288   | 1.18650095882744   occ= 0
MO #33  energy= 1.11231866245161   | 1.03813614801242   | 1.18650096289052   occ= 0
MO #34  energy= 1.11231866685538   | 1.03813615255364   | 1.18650096713446   occ= 0
MO #35  energy= 1.18815355378362   | 1.16773082843246   | 1.20857627913479   occ= 0
MO #36  energy= 1.18815355392092   | 1.16773082857293   | 1.20857627926891   occ= 0
MO #37  energy= 1.61316515592911   | 1.57903976013044   | 1.64729055172778   occ= 0
MO #38  energy= 2.54174620257745   | 2.49590604724119   | 2.58758635791371   occ= 0
MO #39  energy= 2.54174620852051   | 2.49590604962122   | 2.58758636741981   occ= 0
MO #40  energy= 2.54174621426191   | 2.49590605178448   | 2.58758637673934   occ= 0
MO #41  energy= 2.96909115617207   | 2.87205146571106   | 3.06613084663308   occ= 0
MO #42  energy= 2.97924477732636   | 2.91165465254177   | 3.04683490211095   occ= 0
MO #43  energy= 2.97924477900484   | 2.91165464681463   | 3.04683491119505   occ= 0
MO #44  energy= 2.97924478065449   | 2.91165464110578   | 3.04683492020319   occ= 0
MO #45  energy= 2.98758153682777   | 2.944118942526     | 3.03104413112955   occ= 0
MO #46  energy= 2.98758153787397   | 2.94411894854055   | 3.03104412720738   occ= 0
MO #47  energy= 2.98758153860486   | 2.94411895426484   | 3.03104412294488   occ= 0
MO #48  energy= 7.4836909189751    | 7.40027401173379   | 7.56710782621641   occ= 0
MO #49  energy= 7.48445484576304   | 7.42540219820311   | 7.54350749332299   occ= 0
MO #50  energy= 7.48445485079551   | 7.42540219740104   | 7.54350750418997   occ= 0
MO #51  energy= 7.48445485578989   | 7.42540219662207   | 7.54350751495774   occ= 0
MO #52  energy= 7.48516584703257   | 7.44594523515097   | 7.5243864589142    occ= 0
MO #53  energy= 7.48516584800096   | 7.4459452318165    | 7.5243864641854    occ= 0
MO #54  energy= 7.48516584883886   | 7.44594522838726   | 7.52438646929048   occ= 0
 ** Mulliken pop on meta-lowdin orthogonal AOs  **
 ** Mulliken pop  **
pop of  0V 3s        1.99996
pop of  0V 4s        1.99908
pop of  0V 5s        0.00037
pop of  0V 6s        0.00041
pop of  0V 7s        0.00018
pop of  0V 3px       1.99976
pop of  0V 3py       1.99976
pop of  0V 3pz       1.99976
pop of  0V 4px       0.00010
pop of  0V 4py       0.00010
pop of  0V 4pz       0.00010
pop of  0V 5px       0.00001
pop of  0V 5py       0.00001
pop of  0V 5pz       0.00001
pop of  0V 6px       0.00000
pop of  0V 6py       0.00000
pop of  0V 6pz       0.00000
pop of  0V 7px       0.00000
pop of  0V 7py       0.00000
pop of  0V 7pz       0.00000
pop of  0V 3dxy      0.99622
pop of  0V 3dyz      0.99622
pop of  0V 3dz^2     0.00000
pop of  0V 3dxz      0.99622
pop of  0V 3dx2-y2    0.00000
pop of  0V 4dxy      0.00275
pop of  0V 4dyz      0.00275
pop of  0V 4dz^2     0.00000
pop of  0V 4dxz      0.00275
pop of  0V 4dx2-y2    0.00000
pop of  0V 5dxy      0.00099
pop of  0V 5dyz      0.00099
pop of  0V 5dz^2     0.00000
pop of  0V 5dxz      0.00099
pop of  0V 5dx2-y2    0.00000
pop of  0V 6dxy      0.00003
pop of  0V 6dyz      0.00003
pop of  0V 6dz^2     0.00000
pop of  0V 6dxz      0.00003
pop of  0V 6dx2-y2    0.00000
pop of  0V 4fy^3     0.00003
pop of  0V 4fxyz     0.00000
pop of  0V 4fyz^2    0.00002
pop of  0V 4fz^3     0.00005
pop of  0V 4fxz^2    0.00002
pop of  0V 4fzx^2    0.00000
pop of  0V 4fx^3     0.00003
pop of  0V 5fy^3     0.00005
pop of  0V 5fxyz     0.00000
pop of  0V 5fyz^2    0.00003
pop of  0V 5fz^3     0.00007
pop of  0V 5fxz^2    0.00003
pop of  0V 5fzx^2    0.00000
pop of  0V 5fx^3     0.00005
 ** Mulliken atomic charges  **
charge of  0V =     -0.00000

******** <class 'pyscf.mcscf.mc1step.CASSCF'> flags ********
CAS (4e+1e, 6o), ncore = 4, nvir = 44
max_cycle_macro = 50
max_cycle_micro = 4
conv_tol = 1e-07
conv_tol_grad = None
orbital rotation max_stepsize = 0.02
augmented hessian ah_max_cycle = 30
augmented hessian ah_conv_tol = 1e-12
augmented hessian ah_linear dependence = 1e-14
augmented hessian ah_level shift = 0
augmented hessian ah_start_tol = 2.5
augmented hessian ah_start_cycle = 3
augmented hessian ah_grad_trust_region = 3
kf_trust_region = 3
kf_interval = 4
ci_response_space = 4
ci_grad_trust_region = 3
with_dep4 0
natorb = False
canonicalization = True
sorting_mo_energy = False
chkfile = ./scratch/196278/tmpmeQ66B
max_memory 4000 MB (current use 208 MB)
internal_rotation = False

******** SHCI flags ********
executable             = /home/bamu3429/softwares/dice/Dice
mpiprefix              = srun -n20
scratchDirectory       = ./scratch/196278
integralFile           = ./FCIDUMP
configFile             = ./input.dat
outputFile             = ./output.dat
maxIter                = 6
sweep_iter             = []
sweep_epsilon          = []
nPTiter                = 0
Stochastic             = True
fullrestart            = False
restart                = False
num_thrds              = 12
memory                 = None

CASCI E = -70.6956270430268  S^2 = 3.7500000
Set conv_tol_grad to 0.000316228
macro iter 1 (21 JK  4 micro), CASSCF E = -70.7011533905949  dE = -0.0055263476  S^2 = 3.7500000
               |grad[o]|=0.00144  |grad[c]|= None  |ddm|=0.0235
macro iter 2 (21 JK  4 micro), CASSCF E = -70.7141165197576  dE = -0.012963129  S^2 = 3.7500000
               |grad[o]|=0.0103  |grad[c]|= None  |ddm|=0.0819
macro iter 3 (21 JK  4 micro), CASSCF E = -70.7177173001868  dE = -0.0036007804  S^2 = 3.7500000
               |grad[o]|=0.013  |grad[c]|= None  |ddm|=0.024
macro iter 4 (14 JK  4 micro), CASSCF E = -70.7181083227472  dE = -0.00039102256  S^2 = 3.7500000
               |grad[o]|=0.00531  |grad[c]|= None  |ddm|=0.00876
macro iter 5 (15 JK  3 micro), CASSCF E = -70.7181134914652  dE = -5.168718e-06  S^2 = 3.7500000
               |grad[o]|=0.000651  |grad[c]|= None  |ddm|=0.00171
macro iter 6 (6 JK  2 micro), CASSCF E = -70.7181149865487  dE = -1.4950835e-06  S^2 = 3.7500000
               |grad[o]|=0.000198  |grad[c]|= None  |ddm|=0.000359
macro iter 7 (6 JK  2 micro), CASSCF E = -70.7181150766716  dE = -9.0122924e-08  S^2 = 3.7500000
               |grad[o]|=0.000487  |grad[c]|= None  |ddm|=3.85e-05
macro iter 8 (1 JK  1 micro), CASSCF E = -70.7181150766716  dE = 0  S^2 = 3.7500000
               |grad[o]|=2.23e-05  |grad[c]|= None  |ddm|=    0
1-step CASSCF converged in 8 macro (105 JK 24 micro) steps
CASSCF canonicalization
CASSCF energy = -70.7181150766716


--------------------------------------------------
                 ICMPSPT CALCULATION              
--------------------------------------------------

Perturbation type: MRLCC
With fully internally contracted scheme
With third order correction

Preparing necessary RDMs
......production of RDMs took      10.67 sec
Reading binary 4RDM from DICE
......reading the RDM took          1.07 sec

(GOOD) Trace 4RDM:    120.0 =    5*    4*    3*    2
(GOOD) Trace 3RDM:     60.0 =    5*    4*    3
(GOOD) Trace 2RDM:     20.0 =    5*    4
(GOOD) Trace 1RDM:      5.0 =    5

Producing the integrals
......production of INT took      29.29 sec

Energy_core =  -64.61118980
Energy      =  -70.71811508

WARNING: Have to use natural orbitals from CAASCF
         offdiagonal elements:    0.79372236

Basic ingredients written to int/
......savings of INGREDIENTS took      23.97 sec

Second-order:
perturber CCVV --        -0.128456339
perturber CCAV --        -0.065691765
perturber ACVV --        -0.100341623
perturber CCAA --        -0.006268015
perturber AAVV --        -0.036998443
perturber CAAV --        -0.050547164
perturber AAAV --        -0.005670417
perturber AAAC --        -0.002758246
Total:                   -0.396732012

Third-order:             -0.001067958

Total PT       --        -0.397799970

