 &FCI NORB=9 ,NELEC=7 ,MS2=1,
  ORBSYM=1,1,1,1,1,1,1,1,1,
  ISYM=1,
 &END
  6.572101856426e-01    1  1  1  1
  3.047665212429e-02    2  1  2  1
  5.813480196322e-01    2  2  1  1
  6.286945881583e-01    2  2  2  2
 -8.996887732517e-09    3  1  2  1
  3.047658929998e-02    3  1  3  1
 -3.243242602762e-09    3  2  1  1
 -4.230826353103e-09    3  2  2  2
  2.802364293259e-02    3  2  3  2
  5.813480180722e-01    3  3  1  1
  5.726468362408e-01    3  3  2  2
 -4.772898362573e-10    3  3  3  2
  6.286944906560e-01    3  3  3  3
  2.448854608559e-02    4  1  1  1
  1.906853724120e-02    4  1  2  2
  5.058578791986e-09    4  1  3  2
  1.906856626798e-02    4  1  3  3
  3.673959320352e-03    4  1  4  1
  7.862729679758e-05    4  2  2  1
 -1.879448867634e-06    4  2  3  1
  1.557624675669e-03    4  2  4  2
  1.901676855200e-06    4  3  2  1
  7.868230282392e-05    4  3  3  1
 -8.839751748537e-09    4  3  4  2
  1.557601201695e-03    4  3  4  3
  2.123733946387e-01    4  4  1  1
  1.972117706646e-01    4  4  2  2
 -2.748121334625e-08    4  4  3  2
  1.972117901090e-01    4  4  3  3
 -1.261212620861e-03    4  4  4  1
  2.486808656831e-01    4  4  4  4
 -1.542162928391e-04    5  1  2  1
 -1.096530770612e-02    5  1  3  1
 -1.015743398529e-05    5  1  4  2
 -7.926215527913e-04    5  1  4  3
  1.374525264926e-02    5  1  5  1
 -1.924711594995e-03    5  2  1  1
 -2.391337027408e-03    5  2  2  2
 -1.150775731741e-02    5  2  3  2
 -2.074211702813e-03    5  2  3  3
 -5.893050294685e-05    5  2  4  1
  3.134251336663e-04    5  2  4  4
  1.360059471303e-02    5  2  5  2
 -1.499671675803e-01    5  3  1  1
 -1.622679734191e-01    5  3  2  2
 -1.585586544597e-04    5  3  3  2
 -1.852849252959e-01    5  3  3  3
 -4.548016254155e-03    5  3  4  1
  2.386078343283e-02    5  3  4  4
  1.829682323061e-03    5  3  5  2
  1.575828531497e-01    5  3  5  3
 -3.401374745813e-05    5  4  2  1
 -2.743598094923e-03    5  4  3  1
  3.118730471380e-05    5  4  4  2
  2.294848454076e-03    5  4  4  3
 -6.251085382711e-05    5  4  5  1
  4.819741797508e-03    5  4  5  4
  5.154774264126e-01    5  5  1  1
  4.882795438074e-01    5  5  2  2
  4.518135463270e-04    5  5  3  2
  5.244000598878e-01    5  5  3  3
  1.825922945734e-02    5  5  4  1
  2.310424735655e-01    5  5  4  4
 -1.339947492160e-03    5  5  5  2
 -1.067546226615e-01    5  5  5  3
  5.102602002879e-01    5  5  5  5
 -1.096525092454e-02    6  1  2  1
  1.541995642767e-04    6  1  3  1
 -7.926489258765e-04    6  1  4  2
  1.017311796725e-05    6  1  4  3
 -6.573645552092e-09    6  1  5  1
 -2.842589720493e-06    6  1  5  4
  1.374528673611e-02    6  1  6  1
 -1.499670965024e-01    6  2  1  1
 -1.852848425800e-01    6  2  2  2
  1.585634928908e-04    6  2  3  2
 -1.622678686662e-01    6  2  3  3
 -4.548014859731e-03    6  2  4  1
  2.386077889200e-02    6  2  4  4
  1.829693925249e-03    6  2  5  2
  1.304262544243e-01    6  2  5  3
 -9.508586324641e-02    6  2  5  5
  1.575828242896e-01    6  2  6  2
  1.924728673505e-03    6  3  1  1
  2.074221417074e-03    6  3  2  2
 -1.150776252454e-02    6  3  3  2
  2.391346828059e-03    6  3  3  3
  5.893413436642e-05    6  3  4  1
 -3.134745756332e-04    6  3  4  4
  1.355405539032e-02    6  3  5  2
 -1.829700109083e-03    6  3  5  3
  1.210473500012e-03    6  3  5  5
 -1.829687633811e-03    6  3  6  2
  1.360062513611e-02    6  3  6  3
 -2.743651940315e-03    6  4  2  1
  3.404545434327e-05    6  4  3  1
  2.294902669749e-03    6  4  4  2
 -3.121999988038e-05    6  4  4  3
  2.864987283380e-06    6  4  5  1
 -2.869091218890e-08    6  4  5  4
 -6.255566929741e-05    6  4  6  1
  4.819814220480e-03    6  4  6  4
  7.280920994417e-09    6  5  1  1
  4.518273685583e-04    6  5  2  2
  1.805901050079e-02    6  5  3  2
 -4.518325801652e-04    6  5  3  3
  2.412234478202e-09    6  5  4  1
 -4.283452988646e-08    6  5  4  4
 -5.833722159050e-03    6  5  5  2
  6.477139883613e-05    6  5  5  3
 -2.988904885724e-08    6  5  5  5
 -6.475887363076e-05    6  5  6  2
 -5.833730665856e-03    6  5  6  3
  1.807542949094e-02    6  5  6  5
  5.154776744974e-01    6  6  1  1
  5.244003946051e-01    6  6  2  2
 -4.518183142131e-04    6  6  3  2
  4.882799857333e-01    6  6  3  3
  1.825921358519e-02    6  6  4  1
  2.310423924436e-01    6  6  4  4
 -1.210467314112e-03    6  6  5  2
 -9.508622216034e-02    6  6  5  3
  4.741056479465e-01    6  6  5  5
 -1.067550407481e-01    6  6  6  2
  1.339963418003e-03    6  6  6  3
  3.708484781879e-08    6  6  6  5
  5.102603772334e-01    6  6  6  6
  6.267083113762e-02    7  1  1  1
  1.892770465342e-02    7  1  2  2
  4.379536287773e-09    7  1  3  2
  1.893178716007e-02    7  1  3  3
  9.045992804497e-03    7  1  4  1
  2.064241673965e-02    7  1  4  4
  1.644225313394e-04    7  1  5  2
  1.373918625066e-02    7  1  5  3
  3.639465166929e-02    7  1  5  5
  1.373962375905e-02    7  1  6  2
 -1.644133529059e-04    7  1  6  3
 -2.712067925151e-08    7  1  6  5
  3.639235439522e-02    7  1  6  6
  1.204664877514e-01    7  1  7  1
 -8.757535875218e-03    7  2  2  1
  1.341026191829e-06    7  2  3  1
  1.838563278747e-03    7  2  4  2
 -3.663776324301e-06    7  2  4  3
  2.671889056714e-06    7  2  5  1
  6.745362812425e-05    7  2  5  4
 -7.027427206285e-04    7  2  6  1
  5.501748800380e-03    7  2  6  4
  3.534998888724e-02    7  2  7  2
 -1.305165613673e-06    7  3  2  1
 -8.749601154138e-03    7  3  3  1
  3.610922136466e-06    7  3  4  2
  1.837909333266e-03    7  3  4  3
 -7.017912129825e-04    7  3  5  1
  5.497774427389e-03    7  3  5  4
 -2.641267379278e-06    7  3  6  1
 -6.746284850469e-05    7  3  6  4
 -3.369659980306e-08    7  3  7  2
  3.531076451611e-02    7  3  7  3
  2.657282493363e-02    7  4  1  1
  2.268872240224e-02    7  4  2  2
 -2.016768866517e-08    7  4  3  2
  2.268845911377e-02    7  4  3  3
  2.423500257027e-03    7  4  4  1
 -3.188307669147e-03    7  4  4  4
 -6.249929727413e-05    7  4  5  2
 -4.646870557977e-03    7  4  5  3
  1.838390063287e-02    7  4  5  5
 -4.646099390279e-03    7  4  6  2
  6.248599965626e-05    7  4  6  3
 -1.947945487358e-08    7  4  6  5
  1.838437394722e-02    7  4  6  6
  6.707783813268e-03    7  4  7  1
  3.012669610529e-03    7  4  7  4
  3.593834979884e-06    7  5  2  1
 -6.310780795644e-05    7  5  3  1
  2.287513621477e-05    7  5  4  2
  1.849326354324e-03    7  5  4  3
 -7.883737357519e-04    7  5  5  1
  2.040894019347e-03    7  5  5  4
  1.191934398440e-06    7  5  6  1
 -3.215784388248e-06    7  5  6  4
 -6.484950306841e-05    7  5  7  2
 -3.336242276918e-03    7  5  7  3
  8.363988727782e-03    7  5  7  5
 -6.289547883749e-05    7  6  2  1
 -3.552084589262e-06    7  6  3  1
  1.850567465606e-03    7  6  4  2
 -2.288265125491e-05    7  6  4  3
 -1.188416488566e-06    7  6  5  1
  3.175968196044e-06    7  6  5  4
 -7.891154326063e-04    7  6  6  1
  2.041300114963e-03    7  6  6  4
 -3.340855302718e-03    7  6  7  2
  6.470111394170e-05    7  6  7  3
  7.678215332243e-08    7  6  7  5
  8.371292096564e-03    7  6  7  6
  6.303263844110e-01    7  7  1  1
  5.745367583598e-01    7  7  2  2
 -2.337063787728e-08    7  7  3  2
  5.745132380952e-01    7  7  3  3
  2.220013004460e-02    7  7  4  1
  1.914246856452e-01    7  7  4  4
 -1.908993444780e-03    7  7  5  2
 -1.471508047308e-01    7  7  5  3
  4.785841428688e-01    7  7  5  5
 -1.471559555144e-01    7  7  6  2
  1.908887821953e-03    7  7  6  3
  1.254935012677e-07    7  7  6  5
  4.785963541546e-01    7  7  6  6
  4.865066831984e-02    7  7  7  1
  2.846108932093e-02    7  7  7  4
  6.516369579671e-01    7  7  7  7
  1.816211234444e-01    8  1  1  1
  1.694015145827e-01    8  1  2  2
 -5.396475542066e-09    8  1  3  2
  1.694020271764e-01    8  1  3  3
  6.906447393626e-03    8  1  4  1
 -3.396675833044e-02    8  1  4  4
 -1.778941535038e-03    8  1  5  2
 -1.390027658089e-01    8  1  5  3
  8.696969463752e-02    8  1  5  5
 -1.390025893328e-01    8  1  6  2
  1.778930212826e-03    8  1  6  3
 -2.996969096540e-08    8  1  6  5
  8.696985482876e-02    8  1  6  6
  1.200393065570e-02    8  1  7  1
  9.493645504272e-03    8  1  7  4
  1.856046089456e-01    8  1  7  7
  1.882716524370e-01    8  1  8  1
  1.260029250013e-02    8  2  2  1
 -6.121476208570e-06    8  2  3  1
  1.499829418389e-03    8  2  4  2
 -1.688795784162e-08    8  2  4  3
 -1.572141035765e-04    8  2  5  1
  2.564795786133e-06    8  2  5  4
 -1.222082420782e-02    8  2  6  1
  1.609546467136e-04    8  2  6  4
 -1.208270081526e-03    8  2  7  2
  3.097328221231e-06    8  2  7  3
  2.445451510232e-05    8  2  7  5
  1.992137319295e-03    8  2  7  6
  1.463262981785e-02    8  2  8  2
  6.143468109063e-06    8  3  2  1
  1.260142999927e-02    8  3  3  1
  7.970631752040e-09    8  3  4  2
  1.499762974488e-03    8  3  4  3
 -1.222068766835e-02    8  3  5  1
  1.603765133711e-04    8  3  5  4
  1.572374760505e-04    8  3  6  1
 -2.583074834360e-06    8  3  6  4
 -3.141120551675e-06    8  3  7  2
 -1.208593112869e-03    8  3  7  3
  1.989778803616e-03    8  3  7  5
 -2.444387344131e-05    8  3  7  6
 -8.805400130029e-10    8  3  8  2
  1.463340114387e-02    8  3  8  3
 -1.099464481450e-04    8  4  1  1
  9.711447699309e-04    8  4  2  2
 -1.018300790170e-08    8  4  3  2
  9.711063273903e-04    8  4  3  3
 -3.022700183282e-03    8  4  4  1
 -6.283347577919e-04    8  4  4  4
 -1.183292660291e-04    8  4  5  2
 -9.108502419728e-03    8  4  5  3
 -7.329775038863e-03    8  4  5  5
 -9.108374589483e-03    8  4  6  2
  1.183162580929e-04    8  4  6  3
 -1.228865822905e-08    8  4  6  5
 -7.329680017719e-03    8  4  6  6
  1.208350842150e-03    8  4  7  1
 -1.156451056807e-03    8  4  7  4
  1.975894071469e-03    8  4  7  7
  1.356135292054e-02    8  4  8  1
  6.388532096259e-03    8  4  8  4
 -2.363302579101e-04    8  5  2  1
 -1.883309108653e-02    8  5  3  1
  1.132273644584e-06    8  5  4  2
  6.515942388560e-05    8  5  4  3
  6.259602008046e-03    8  5  5  1
  2.255339038612e-03    8  5  5  4
 -7.667867522228e-06    8  5  6  1
 -4.062076245882e-07    8  5  6  4
  6.657403968376e-05    8  5  7  2
  5.385553059307e-03    8  5  7  3
 -5.701316268874e-05    8  5  7  5
  1.220705397391e-06    8  5  7  6
 -8.437046521815e-05    8  5  8  2
 -6.886038159086e-03    8  5  8  3
  1.800668718896e-02    8  5  8  5
 -1.883308089808e-02    8  6  2  1
  2.363770015826e-04    8  6  3  1
  6.537955254753e-05    8  6  4  2
 -1.160103015341e-06    8  6  4  3
  7.698577364328e-06    8  6  5  1
  3.519881486801e-07    8  6  5  4
  6.259462165156e-03    8  6  6  1
  2.255427063248e-03    8  6  6  4
  5.390845733470e-03    8  6  7  2
 -6.657089268521e-05    8  6  7  3
 -1.277753986527e-06    8  6  7  5
 -5.686563751727e-05    8  6  7  6
 -6.884816692172e-03    8  6  8  2
  8.435357066115e-05    8  6  8  3
 -4.496676850453e-08    8  6  8  5
  1.800658596001e-02    8  6  8  6
  4.155868290134e-02    8  7  1  1
  2.763988171359e-02    8  7  2  2
 -9.735987053333e-09    8  7  3  2
  2.763935543953e-02    8  7  3  3
  4.152781268770e-03    8  7  4  1
 -7.635617528557e-03    8  7  4  4
 -2.704544755143e-04    8  7  5  2
 -2.024470043614e-02    8  7  5  3
  7.982526641000e-03    8  7  5  5
 -2.024356277426e-02    8  7  6  2
  2.704700324148e-04    8  7  6  3
  2.871417175130e-09    8  7  6  5
  7.983071570797e-03    8  7  6  6
  4.854696235651e-02    8  7  7  1
  4.403726734526e-03    8  7  7  4
  4.713588139391e-02    8  7  7  7
  5.170296108516e-02    8  7  8  1
  6.071231108335e-03    8  7  8  4
  4.723351754480e-02    8  7  8  7
  5.831935960027e-01    8  8  1  1
  5.021881287175e-01    8  8  2  2
  1.010824099293e-08    8  8  3  2
  5.021886576865e-01    8  8  3  3
  2.430371100013e-02    8  8  4  1
  2.528158363148e-01    8  8  4  4
 -1.012563963744e-03    8  8  5  2
 -8.040083975075e-02    8  8  5  3
  5.129871876101e-01    8  8  5  5
 -8.040047168432e-02    8  8  6  2
  1.012623809653e-03    8  8  6  3
  4.756129481819e-08    8  8  6  5
  5.129868686456e-01    8  8  6  6
  9.285850132799e-02    8  8  7  1
  2.133958382774e-02    8  8  7  4
  5.216034072239e-01    8  8  7  7
  8.829908007848e-02    8  8  8  1
 -9.170760922885e-03    8  8  8  4
  2.446768560314e-02    8  8  8  7
  6.205961888838e-01    8  8  8  8
 -5.038574410144e-02    9  1  1  1
 -4.871391793685e-02    9  1  2  2
 -3.910433779208e-09    9  1  3  2
 -4.871443622432e-02    9  1  3  3
 -1.208441379725e-03    9  1  4  1
 -1.738983112237e-02    9  1  4  4
  5.627966745058e-04    9  1  5  2
  4.677635632046e-02    9  1  5  3
 -6.237828469952e-02    9  1  5  5
  4.677648619190e-02    9  1  6  2
 -5.628210621485e-04    9  1  6  3
 -1.615406407795e-08    9  1  6  5
 -6.237806563872e-02    9  1  6  6
  1.901153258698e-02    9  1  7  1
  2.216044590802e-03    9  1  7  4
 -1.217414078722e-02    9  1  7  7
 -4.120998788178e-02    9  1  8  1
  1.023002578959e-04    9  1  8  4
  1.113697921443e-02    9  1  8  7
 -7.731044934773e-02    9  1  8  8
  8.884564087547e-02    9  1  9  1
  6.100457217667e-05    9  2  2  1
  2.870356393425e-06    9  2  3  1
 -1.458227230660e-04    9  2  4  2
  1.359862712585e-08    9  2  4  3
  7.659558469981e-05    9  2  5  1
  2.000267440054e-06    9  2  5  4
  6.803767896314e-03    9  2  6  1
  1.764561586263e-04    9  2  6  4
  2.855102107101e-03    9  2  7  2
 -1.545907218284e-06    9  2  7  3
 -2.106901346157e-05    9  2  7  5
 -1.542855924179e-03    9  2  7  6
 -5.688888982981e-03    9  2  8  2
  3.548229326229e-06    9  2  8  3
  6.461938024488e-05    9  2  8  5
  5.191749409074e-03    9  2  8  6
  1.301337033875e-02    9  2  9  2
 -2.860884768671e-06    9  3  2  1
  6.014297024921e-05    9  3  3  1
 -9.617163876016e-09    9  3  4  2
 -1.457109724454e-04    9  3  4  3
  6.803619259444e-03    9  3  5  1
  1.769426972660e-04    9  3  5  4
 -7.658654486428e-05    9  3  6  1
 -2.001872416255e-06    9  3  6  4
  1.542937111455e-06    9  3  7  2
  2.856314038461e-03    9  3  7  3
 -1.541896389353e-03    9  3  7  5
  2.106388177041e-05    9  3  7  6
 -3.531641472271e-06    9  3  8  2
 -5.689207524020e-03    9  3  8  3
  5.192537205476e-03    9  3  8  5
 -6.462816483369e-05    9  3  8  6
  1.116328697694e-08    9  3  9  2
  1.301363955672e-02    9  3  9  3
 -1.357332180249e-02    9  4  1  1
 -1.169766341940e-02    9  4  2  2
 -1.564676531034e-09    9  4  3  2
 -1.169760026988e-02    9  4  3  3
 -2.502871598887e-03    9  4  4  1
 -3.705259025539e-03    9  4  4  4
 -2.228288092033e-05    9  4  5  2
 -1.621285742054e-03    9  4  5  3
 -1.650005624496e-02    9  4  5  5
 -1.621386425464e-03    9  4  6  2
  2.228061937457e-05    9  4  6  3
 -3.612640781167e-09    9  4  6  5
 -1.650013445145e-02    9  4  6  6
 -2.852021094911e-03    9  4  7  1
 -1.314537690584e-03    9  4  7  4
 -9.864174775053e-03    9  4  7  7
  2.982393747640e-03    9  4  8  1
  3.627420769763e-03    9  4  8  4
  7.298515939440e-04    9  4  8  7
 -2.100968204958e-02    9  4  8  8
  3.752290473272e-03    9  4  9  1
  2.976567526622e-03    9  4  9  4
  1.208577999308e-04    9  5  2  1
  1.049243359124e-02    9  5  3  1
  1.392398401044e-06    9  5  4  2
  1.227017206703e-04    9  5  4  3
 -7.342190000609e-03    9  5  5  1
 -7.021645779409e-04    9  5  5  4
  3.747954014945e-06    9  5  6  1
  6.540401128606e-07    9  5  6  4
 -3.536731120197e-05    9  5  7  2
 -2.964742322737e-03    9  5  7  3
  6.025629592604e-04    9  5  7  5
 -4.377889812972e-08    9  5  7  6
  1.105439483241e-04    9  5  8  2
  9.054563049199e-03    9  5  8  3
 -5.710125290271e-03    9  5  8  5
  4.171525937729e-06    9  5  8  6
 -4.832757046889e-05    9  5  9  2
 -3.823970978035e-03    9  5  9  3
  1.153467020855e-02    9  5  9  5
  1.049256575849e-02    9  6  2  1
 -1.208374703803e-04    9  6  3  1
  1.225229740364e-04    9  6  4  2
 -1.391955172602e-06    9  6  4  3
 -3.729065068829e-06    9  6  5  1
 -6.642307679858e-07    9  6  5  4
 -7.342112999657e-03    9  6  6  1
 -7.023014037008e-04    9  6  6  4
 -2.966315950743e-03    9  6  7  2
  3.533979748117e-05    9  6  7  3
  2.993511326111e-08    9  6  7  5
  6.022147341554e-04    9  6  7  6
  9.054046597201e-03    9  6  8  2
 -1.105486304171e-04    9  6  8  3
 -4.198944447299e-06    9  6  8  5
 -5.710200135446e-03    9  6  8  6
 -3.823713110391e-03    9  6  9  2
  4.835221251611e-05    9  6  9  3
  7.723443900102e-12    9  6  9  5
  1.153470284800e-02    9  6  9  6
  5.949970519043e-02    9  7  1  1
  4.606713670724e-02    9  7  2  2
 -1.078115216656e-09    9  7  3  2
  4.606799592010e-02    9  7  3  3
  2.695775771299e-03    9  7  4  1
  2.385044916988e-03    9  7  4  4
 -2.898666141799e-04    9  7  5  2
 -2.242271533978e-02    9  7  5  3
  3.418325528194e-02    9  7  5  5
 -2.242348659003e-02    9  7  6  2
  2.898625248666e-04    9  7  6  3
 -8.484504426522e-09    9  7  6  5
  3.418256878308e-02    9  7  6  6
  1.991584973707e-02    9  7  7  1
  3.643852788391e-03    9  7  7  4
  5.986421772117e-02    9  7  7  7
  3.059440448371e-02    9  7  8  1
  7.404367225872e-04    9  7  8  4
 -5.761066560677e-04    9  7  8  7
  3.731196056302e-02    9  7  8  8
 -6.567687411364e-03    9  7  9  1
  8.996498285933e-04    9  7  9  4
  3.748050071666e-02    9  7  9  7
 -1.111837780300e-01    9  8  1  1
 -1.213753634364e-01    9  8  2  2
  1.756757030975e-08    9  8  3  2
 -1.213753922394e-01    9  8  3  3
 -1.486859065665e-03    9  8  4  1
  4.110754368938e-02    9  8  4  4
  1.509577014682e-03    9  8  5  2
  1.183513469545e-01    9  8  5  3
 -4.862423646271e-02    9  8  5  5
  1.183509551894e-01    9  8  6  2
 -1.509543575019e-03    9  8  6  3
  4.610945003928e-08    9  8  6  5
 -4.862477802664e-02    9  8  6  6
  2.993190609554e-02    9  8  7  1
 -5.207217805223e-03    9  8  7  4
 -1.168069582183e-01    9  8  7  7
 -1.494182053788e-01    9  8  8  1
 -1.218833315793e-02    9  8  8  4
 -2.481701453566e-02    9  8  8  7
 -2.039060908927e-02    9  8  8  8
  4.080908476227e-02    9  8  9  1
 -5.242247935573e-03    9  8  9  4
 -2.009026455029e-02    9  8  9  7
  1.520694500637e-01    9  8  9  8
  5.947211838347e-01    9  9  1  1
  5.375593823293e-01    9  9  2  2
  1.212258293559e-08    9  9  3  2
  5.375595751484e-01    9  9  3  3
  1.994717904242e-02    9  9  4  1
  2.066030406604e-01    9  9  4  4
 -1.726919551146e-03    9  9  5  2
 -1.360099435901e-01    9  9  5  3
  4.926425292695e-01    9  9  5  5
 -1.360097350592e-01    9  9  6  2
  1.726964537536e-03    9  9  6  3
  2.982423288303e-08    9  9  6  5
  4.926427555263e-01    9  9  6  6
  1.798861763948e-02    9  9  7  1
  2.192327176496e-02    9  9  7  4
  5.604401887457e-01    9  9  7  7
  1.461894792817e-01    9  9  8  1
 -4.985065134174e-03    9  9  8  4
  9.011145790144e-03    9  9  8  7
  5.459628263302e-01    9  9  8  8
 -7.106180314771e-02    9  9  9  1
 -1.442731503339e-02    9  9  9  4
  4.817896802067e-02    9  9  9  7
 -1.071966256070e-01    9  9  9  8
  5.907562159554e-01    9  9  9  9
 -3.556251529404e+00    1  1  0  0
 -3.469092118196e+00    2  2  0  0
  5.436283837847e-09    3  2  0  0
 -3.469092372226e+00    3  3  0  0
 -9.885416242616e-02    4  1  0  0
 -1.450248349246e+00    4  4  0  0
  9.783268558395e-03    5  2  0  0
  7.251843458546e-01    5  3  0  0
 -2.593443995037e+00    5  5  0  0
  7.251842157448e-01    6  2  0  0
 -9.783303019992e-03    6  3  0  0
 -1.041009901291e-08    6  5  0  0
 -2.593444481396e+00    6  6  0  0
 -1.778848952069e-01    7  1  0  0
 -1.212103661400e-01    7  4  0  0
 -1.566294541824e+00    7  7  0  0
 -7.663317285044e-01    8  1  0  0
  1.383841679436e-02    8  4  0  0
  1.447863448775e-01    8  7  0  0
 -2.524657003994e+00    8  8  0  0
  2.139765861961e-01    9  1  0  0
  7.145013355260e-02    9  4  0  0
  1.968927972771e-01    9  7  0  0
  1.091555497035e-01    9  8  0  0
 -1.300410154631e+00    9  9  0  0
    -49.269668525012   0  0  0  0
