#INFO: **** input file is /projects/bamu3429/BENCHMARK/fresh_atoms/MRPT/vqz/monoxides/ScO/mrpt.py ****
import json
from pyscf import gto,scf,mcscf, fci, lo, ci, cc
from pyscf.scf import ROHF, UHF,ROKS
import numpy as np
import pandas as pd

# THIS IS WERE IT STARTS ====================================

df=json.load(open("../../../trail.json"))

spins={'ScO':1, 'TiO':2, 'VO':3, 'CrO':4, 'MnO':5, 'FeO':4, 'CuO':1}

nd={'Sc':(1,0), 'Ti':(2,0), 'V':(3,0), 'Cr':(5,0), 'Mn':(5,0), 'Fe':(5,1), 'Cu':(5,4)}

cas={'Sc':3, 'Ti':4, 'V':5, 'Cr':6, 'Mn':7, 'Fe':8, 'Cu':11}

re={'ScO':1.668, 'TiO':1.623, 'VO':1.591, 'CrO':1.621, 'MnO':1.648, 'FeO':1.616, 'CuO':1.725}

datacsv={}
for nm in ['basis','charge','method','molecule','pseudopotential',
           'totalenergy','totalenergy-stocherr','totalenergy-syserr']:
  datacsv[nm]=[]

basis='vqz'
element='Sc'

mol=gto.Mole()
mol.ecp={}
mol.basis={}
for el in [element,'O']:
  mol.ecp[el]=gto.basis.parse_ecp(df[el]['ecp'])
  mol.basis[el]=gto.basis.parse(df[el][basis])
mol.charge=0
mol.spin=spins[element+'O']
mol.build(atom="%s 0. 0. 0.; O 0. 0. %g"%(element,re[element+'O']),verbose=4)

m=ROHF(mol)
m.level_shift=1000.0
dm=m.from_chk("../../../../HF/monoxides/"+element+basis+"0.chk")
hf=m.kernel(dm)
m.analyze()

from pyscf.shciscf import shci
mc = shci.SHCISCF(m, 9, 4+cas[element])
#mc.fcisolver.conv_tol = 1e-14
mc.fcisolver.mpiprefix="srun -n20"
mc.fcisolver.num_thrds=12
mc.verbose = 4
cas=mc.kernel()[0]
 
from pyscf.icmpspt import icmpspt
pt=icmpspt.icmpspt(mc,rdmM=500, PTM=1000,\
                          pttype="MRLCC",\
                          third_order=True,\
                          fully_ic=True,\
                          do_dm4=True)

datacsv['basis'].append(basis)
datacsv['charge'].append(0)
datacsv['method'].append('MRPT')
datacsv['molecule'].append(element)
datacsv['pseudopotential'].append('trail')
datacsv['totalenergy'].append(cas+pt)
datacsv['totalenergy-stocherr'].append(0.0)
datacsv['totalenergy-syserr'].append(0.0)
pd.DataFrame(datacsv).to_csv(element+".csv",index=False)

#INFO: ******************** input file end ********************


System: ('Linux', 'bnode0302.rc.int.colorado.edu', '3.10.0-514.41.1.el7.x86_64', '#1 SMP Wed Jan 17 10:26:16 EST 2018', 'x86_64', 'x86_64')  Threads 28
Python 2.7.11 (default, Mar 22 2016, 01:42:54) 
[GCC Intel(R) C++ gcc 4.8 mode]
numpy 1.11.1  scipy 0.17.1
Date: Thu Apr 19 11:14:25 2018
PySCF version 1.4.6
PySCF path  /projects/bamu3429/softwares/pyscf_uptodate/pyscf
GIT ORIG_HEAD f3591ef22170896a4cdc2aadaa6f5da388ffcadb
GIT HEAD      ref: refs/heads/master
GIT master branch  1847583fb1d2472321833d3c71c8b7008e5fabf5

[INPUT] VERBOSE 4
[INPUT] num atoms = 2
[INPUT] num electrons = 17
[INPUT] charge = 0
[INPUT] spin (= nelec alpha-beta = 2S) = 1
[INPUT] symmetry False subgroup None
[INPUT]  1 Sc     0.000000000000   0.000000000000   0.000000000000 AA    0.000000000000   0.000000000000   0.000000000000 Bohr
[INPUT]  2 O      0.000000000000   0.000000000000   1.668000000000 AA    0.000000000000   0.000000000000   3.152063175775 Bohr
[INPUT] ---------------- BASIS SET ---------------- 
[INPUT] l, kappa, [nprim/nctr], expnt,             c_1 c_2 ...
[INPUT] Sc
[INPUT] 0    0    [12   /1   ]  36.40041505       0.005374
                                19.41172108       -0.032266
                                7.76559262        0.361279
                                4.72233684        -0.858519
                                3.30202494        0.196889
                                1.73290764        0.133972
                                0.86033787        0.640189
                                0.4883664         0.334618
                                0.23725388        0.123744
                                0.10565308        -0.017421
                                0.04670613        0.010856
                                0.020926          -0.001573
[INPUT] 0    0    [12   /1   ]  36.40041505       -0.001039
                                19.41172108       0.006911
                                7.76559262        -0.089603
                                4.72233684        0.22876
                                3.30202494        -0.05839
                                1.73290764        -0.038559
                                0.86033787        -0.215849
                                0.4883664         -0.20849
                                0.23725388        -0.146275
                                0.10565308        0.350802
                                0.04670613        0.655178
                                0.020926          0.218601
[INPUT] 0    0    [12   /1   ]  36.40041505       -0.001757
                                19.41172108       0.017214
                                7.76559262        -0.309351
                                4.72233684        0.852232
                                3.30202494        -0.054357
                                1.73290764        -0.877431
                                0.86033787        -0.851357
                                0.4883664         0.434617
                                0.23725388        0.828918
                                0.10565308        0.711195
                                0.04670613        -0.620805
                                0.020926          -0.444929
[INPUT] 0    0    [12   /1   ]  36.40041505       0.001346
                                19.41172108       -0.019857
                                7.76559262        0.462727
                                4.72233684        -1.512081
                                3.30202494        0.363612
                                1.73290764        2.07208
                                0.86033787        0.406995
                                0.4883664         -2.637763
                                0.23725388        0.089702
                                0.10565308        1.912195
                                0.04670613        -0.405077
                                0.020926          -0.728926
[INPUT] 0    0    [12   /1   ]  36.40041505       0.000907
                                19.41172108       -0.027625
                                7.76559262        0.982752
                                4.72233684        -4.902832
                                3.30202494        5.022953
                                1.73290764        1.990521
                                0.86033787        -5.42832
                                0.4883664         1.522074
                                0.23725388        2.933352
                                0.10565308        -2.057669
                                0.04670613        -0.536188
                                0.020926          0.972674
[INPUT] 0    0    [1    /1   ]  0.020926             1
[INPUT] 0    0    [1    /1   ]  0.00937558           1
[INPUT] 1    0    [12   /1   ]  41.12697558       0.001162
                                22.43738592       -0.006345
                                11.2588519        0.030743
                                6.08582478        -0.083979
                                3.77549759        -0.031739
                                2.17906519        0.232763
                                1.07491872        0.420436
                                0.55241218        0.351975
                                0.2815094         0.143464
                                0.12312886        0.016009
                                0.0538551         0.000238
                                0.02355558        0.000253
[INPUT] 1    0    [12   /1   ]  41.12697558       -0.000251
                                22.43738592       0.001425
                                11.2588519        -0.007434
                                6.08582478        0.022493
                                3.77549759        0.004514
                                2.17906519        -0.065531
                                1.07491872        -0.124901
                                0.55241218        -0.130795
                                0.2815094         0.004026
                                0.12312886        0.357311
                                0.0538551         0.542386
                                0.02355558        0.222946
[INPUT] 1    0    [12   /1   ]  41.12697558       0.000654
                                22.43738592       -0.004898
                                11.2588519        0.034844
                                6.08582478        -0.123849
                                3.77549759        -0.120682
                                2.17906519        0.895125
                                1.07491872        0.354763
                                0.55241218        -0.901706
                                0.2815094         -0.574936
                                0.12312886        0.607186
                                0.0538551         0.43331
                                0.02355558        0.006588
[INPUT] 1    0    [12   /1   ]  41.12697558       0.002261
                                22.43738592       -0.014029
                                11.2588519        0.095625
                                6.08582478        -0.499626
                                3.77549759        0.596953
                                2.17906519        1.437784
                                1.07491872        -1.687632
                                0.55241218        -0.788853
                                0.2815094         1.701663
                                0.12312886        -0.108012
                                0.0538551         -0.637662
                                0.02355558        -0.000786
[INPUT] 1    0    [12   /1   ]  41.12697558       0.003355
                                22.43738592       -0.02062
                                11.2588519        0.167806
                                6.08582478        -1.324932
                                3.77549759        3.523648
                                2.17906519        -1.758961
                                1.07491872        -2.274845
                                0.55241218        3.517897
                                0.2815094         -1.410371
                                0.12312886        -0.897238
                                0.0538551         0.987779
                                0.02355558        -0.008436
[INPUT] 1    0    [1    /1   ]  0.02355558           1
[INPUT] 1    0    [1    /1   ]  0.01030293           1
[INPUT] 2    0    [10   /1   ]  23.41055103       -0.002062
                                9.57667856        0.014373
                                5.80916551        0.096933
                                2.24207749        0.204502
                                1.03019541        0.261896
                                0.49142269        0.31382
                                0.21727354        0.282419
                                0.10003285        0.15287
                                0.04583255        0.056392
                                0.02097146        0.002436
[INPUT] 2    0    [10   /1   ]  23.41055103       0.003531
                                9.57667856        -0.025139
                                5.80916551        -0.060155
                                2.24207749        -0.368895
                                1.03019541        -0.411747
                                0.49142269        0.111786
                                0.21727354        0.353557
                                0.10003285        0.348464
                                0.04583255        0.162515
                                0.02097146        0.016902
[INPUT] 2    0    [10   /1   ]  23.41055103       0.002805
                                9.57667856        -0.021771
                                5.80916551        -0.030825
                                2.24207749        -0.649844
                                1.03019541        0.02906
                                0.49142269        0.758049
                                0.21727354        0.174218
                                0.10003285        -0.465169
                                0.04583255        -0.346161
                                0.02097146        -0.046508
[INPUT] 2    0    [10   /1   ]  23.41055103       -0.010193
                                9.57667856        0.070326
                                5.80916551        -0.45629
                                2.24207749        -0.797936
                                1.03019541        1.519518
                                0.49142269        -0.34248
                                0.21727354        -0.705581
                                0.10003285        0.222964
                                0.04583255        0.392544
                                0.02097146        0.055526
[INPUT] 2    0    [1    /1   ]  0.02097146           1
[INPUT] 2    0    [1    /1   ]  0.00959584           1
[INPUT] 3    0    [1    /1   ]  2.307831             1
[INPUT] 3    0    [1    /1   ]  0.808322             1
[INPUT] 3    0    [1    /1   ]  0.283115             1
[INPUT] 3    0    [1    /1   ]  0.0991611            1
[INPUT] 4    0    [1    /1   ]  2.421709             1
[INPUT] 4    0    [1    /1   ]  0.898168             1
[INPUT] 4    0    [1    /1   ]  0.33311423           1
[INPUT] 5    0    [1    /1   ]  2.103991             1
[INPUT] 5    0    [1    /1   ]  0.78033213           1
[INPUT] O
[INPUT] 0    0    [10   /1   ]  57.663349         -0.002794
                                35.726816         0.023976
                                22.453757         -0.115974
                                14.732301         0.288033
                                9.739917          -0.274786
                                5.042008          -0.083789
                                2.157818          0.063778
                                1.002916          0.410182
                                0.421839          0.504044
                                0.173041          0.172152
[INPUT] 0    0    [1    /1   ]  1.70747              1
[INPUT] 0    0    [1    /1   ]  0.617491             1
[INPUT] 0    0    [1    /1   ]  0.223309             1
[INPUT] 0    0    [1    /1   ]  0.084592             1
[INPUT] 1    0    [10   /1   ]  52.47406          -0.000522
                                32.138432         0.004857
                                19.458579         -0.027749
                                11.839344         0.074258
                                7.91003           0.014369
                                3.670858          0.153479
                                1.53966           0.283685
                                0.647119          0.358201
                                0.267853          0.29559
                                0.107198          0.104889
[INPUT] 1    0    [1    /1   ]  1.345435             1
[INPUT] 1    0    [1    /1   ]  0.458358             1
[INPUT] 1    0    [1    /1   ]  0.156151             1
[INPUT] 1    0    [1    /1   ]  0.045837             1
[INPUT] 2    0    [1    /1   ]  3.661538             1
[INPUT] 2    0    [1    /1   ]  1.279275             1
[INPUT] 2    0    [1    /1   ]  0.446952             1
[INPUT] 2    0    [1    /1   ]  0.148191             1
[INPUT] 3    0    [1    /1   ]  2.598839             1
[INPUT] 3    0    [1    /1   ]  0.849032             1
[INPUT] 3    0    [1    /1   ]  0.310222             1
[INPUT] 4    0    [1    /1   ]  1.838653             1
[INPUT] 4    0    [1    /1   ]  0.706784             1
nuclear repulsion = 20.9386666191367
number of shells = 48
number of NR pGTOs = 650
number of NR cGTOs = 214
basis = {'Sc': [[0, [36.40041505, 0.005374], [19.41172108, -0.032266], [7.76559262, 0.361279], [4.72233684, -0.858519], [3.30202494, 0.196889], [1.73290764, 0.133972], [0.86033787, 0.640189], [0.4883664, 0.334618], [0.23725388, 0.123744], [0.10565308, -0.017421], [0.04670613, 0.010856], [0.020926, -0.001573]], [0, [36.40041505, -0.001039], [19.41172108, 0.006911], [7.76559262, -0.089603], [4.72233684, 0.22876], [3.30202494, -0.05839], [1.73290764, -0.038559], [0.86033787, -0.215849], [0.4883664, -0.20849], [0.23725388, -0.146275], [0.10565308, 0.350802], [0.04670613, 0.655178], [0.020926, 0.218601]], [0, [36.40041505, -0.001757], [19.41172108, 0.017214], [7.76559262, -0.309351], [4.72233684, 0.852232], [3.30202494, -0.054357], [1.73290764, -0.877431], [0.86033787, -0.851357], [0.4883664, 0.434617], [0.23725388, 0.828918], [0.10565308, 0.711195], [0.04670613, -0.620805], [0.020926, -0.444929]], [0, [36.40041505, 0.001346], [19.41172108, -0.019857], [7.76559262, 0.462727], [4.72233684, -1.512081], [3.30202494, 0.363612], [1.73290764, 2.07208], [0.86033787, 0.406995], [0.4883664, -2.637763], [0.23725388, 0.089702], [0.10565308, 1.912195], [0.04670613, -0.405077], [0.020926, -0.728926]], [0, [36.40041505, 0.000907], [19.41172108, -0.027625], [7.76559262, 0.982752], [4.72233684, -4.902832], [3.30202494, 5.022953], [1.73290764, 1.990521], [0.86033787, -5.42832], [0.4883664, 1.522074], [0.23725388, 2.933352], [0.10565308, -2.057669], [0.04670613, -0.536188], [0.020926, 0.972674]], [0, [0.020926, 1.0]], [0, [0.00937558, 1.0]], [1, [41.12697558, 0.001162], [22.43738592, -0.006345], [11.2588519, 0.030743], [6.08582478, -0.083979], [3.77549759, -0.031739], [2.17906519, 0.232763], [1.07491872, 0.420436], [0.55241218, 0.351975], [0.2815094, 0.143464], [0.12312886, 0.016009], [0.0538551, 0.000238], [0.02355558, 0.000253]], [1, [41.12697558, -0.000251], [22.43738592, 0.001425], [11.2588519, -0.007434], [6.08582478, 0.022493], [3.77549759, 0.004514], [2.17906519, -0.065531], [1.07491872, -0.124901], [0.55241218, -0.130795], [0.2815094, 0.004026], [0.12312886, 0.357311], [0.0538551, 0.542386], [0.02355558, 0.222946]], [1, [41.12697558, 0.000654], [22.43738592, -0.004898], [11.2588519, 0.034844], [6.08582478, -0.123849], [3.77549759, -0.120682], [2.17906519, 0.895125], [1.07491872, 0.354763], [0.55241218, -0.901706], [0.2815094, -0.574936], [0.12312886, 0.607186], [0.0538551, 0.43331], [0.02355558, 0.006588]], [1, [41.12697558, 0.002261], [22.43738592, -0.014029], [11.2588519, 0.095625], [6.08582478, -0.499626], [3.77549759, 0.596953], [2.17906519, 1.437784], [1.07491872, -1.687632], [0.55241218, -0.788853], [0.2815094, 1.701663], [0.12312886, -0.108012], [0.0538551, -0.637662], [0.02355558, -0.000786]], [1, [41.12697558, 0.003355], [22.43738592, -0.02062], [11.2588519, 0.167806], [6.08582478, -1.324932], [3.77549759, 3.523648], [2.17906519, -1.758961], [1.07491872, -2.274845], [0.55241218, 3.517897], [0.2815094, -1.410371], [0.12312886, -0.897238], [0.0538551, 0.987779], [0.02355558, -0.008436]], [1, [0.02355558, 1.0]], [1, [0.01030293, 1.0]], [2, [23.41055103, -0.002062], [9.57667856, 0.014373], [5.80916551, 0.096933], [2.24207749, 0.204502], [1.03019541, 0.261896], [0.49142269, 0.31382], [0.21727354, 0.282419], [0.10003285, 0.15287], [0.04583255, 0.056392], [0.02097146, 0.002436]], [2, [23.41055103, 0.003531], [9.57667856, -0.025139], [5.80916551, -0.060155], [2.24207749, -0.368895], [1.03019541, -0.411747], [0.49142269, 0.111786], [0.21727354, 0.353557], [0.10003285, 0.348464], [0.04583255, 0.162515], [0.02097146, 0.016902]], [2, [23.41055103, 0.002805], [9.57667856, -0.021771], [5.80916551, -0.030825], [2.24207749, -0.649844], [1.03019541, 0.02906], [0.49142269, 0.758049], [0.21727354, 0.174218], [0.10003285, -0.465169], [0.04583255, -0.346161], [0.02097146, -0.046508]], [2, [23.41055103, -0.010193], [9.57667856, 0.070326], [5.80916551, -0.45629], [2.24207749, -0.797936], [1.03019541, 1.519518], [0.49142269, -0.34248], [0.21727354, -0.705581], [0.10003285, 0.222964], [0.04583255, 0.392544], [0.02097146, 0.055526]], [2, [0.02097146, 1.0]], [2, [0.00959584, 1.0]], [3, [2.307831, 1.0]], [3, [0.808322, 1.0]], [3, [0.283115, 1.0]], [3, [0.0991611, 1.0]], [4, [2.421709, 1.0]], [4, [0.898168, 1.0]], [4, [0.33311423, 1.0]], [5, [2.103991, 1.0]], [5, [0.78033213, 1.0]]], 'O': [[0, [57.663349, -0.002794], [35.726816, 0.023976], [22.453757, -0.115974], [14.732301, 0.288033], [9.739917, -0.274786], [5.042008, -0.083789], [2.157818, 0.063778], [1.002916, 0.410182], [0.421839, 0.504044], [0.173041, 0.172152]], [0, [1.70747, 1.0]], [0, [0.617491, 1.0]], [0, [0.223309, 1.0]], [0, [0.084592, 1.0]], [1, [52.47406, -0.000522], [32.138432, 0.004857], [19.458579, -0.027749], [11.839344, 0.074258], [7.91003, 0.014369], [3.670858, 0.153479], [1.53966, 0.283685], [0.647119, 0.358201], [0.267853, 0.29559], [0.107198, 0.104889]], [1, [1.345435, 1.0]], [1, [0.458358, 1.0]], [1, [0.156151, 1.0]], [1, [0.045837, 1.0]], [2, [3.661538, 1.0]], [2, [1.279275, 1.0]], [2, [0.446952, 1.0]], [2, [0.148191, 1.0]], [3, [2.598839, 1.0]], [3, [0.849032, 1.0]], [3, [0.310222, 1.0]], [4, [1.838653, 1.0]], [4, [0.706784, 1.0]]]}
ecp = {'Sc': [10, [[-1, [[], [[8.68432435, 11.0]], [[12.96081047, 1293.12711495], [3.42726018, -59.34807006], [13.92649869, -6626.33658022], [14.1135521, 5365.4170824]], [[3.87834215, 95.52756785]]]], [0, [[], [], [[14.11432286, -1492.86349923], [4.42835597, 1499.37242], [7.46045566, 1088.20049735], [10.23533878, -1981.91696501], [4.52489587, -1710.45115474], [13.07885945, 2625.43810581]], []]], [1, [[], [], [[9.83997641, -2070.12504374], [7.25072068, 5801.02991534], [11.81974746, 1554.97375552], [14.07433272, -853.69420879], [7.08460322, -4878.01776292], [14.07166426, 462.12967346]], []]], [2, [[], [], [[11.29849449, -570.2795343], [5.72119848, -549.4382461], [6.53234086, 1672.92599442], [8.11431019, -2704.80905453], [9.9572828, 4666.19773963], [10.24029445, -2524.96335631]], []]]]], 'O': [2, [[-1, [[], [[10.27717748, 6.0]], [[15.99566749, 1232.50197768], [10.46901775, -696.47008301], [14.6384801, -2654.22657081], [12.57591181, 2101.67732548]], [[7.77739102, 61.66306486]]]], [0, [[], [], [[12.39426073, -656683.37638839], [12.38126171, 657858.57667068], [8.57671033, 511.50098405], [9.89256508, -2579.54665641], [28.05641604, -57.68129584], [17.24753607, 970.30940152]], []]], [1, [[], [], [[14.78918914, -363027.24258186], [14.82014018, 361852.52314043], [22.89622221, -1300.20069256], [8.51331893, -181.96869573], [11.48609758, 2194.87589959], [27.22017524, 451.19906206]], []]]]]}
CPU time:         3.57


******** <class 'pyscf.scf.rohf.ROHF'> flags ********
method = ROHF
initial guess = minao
damping factor = 0
level shift factor = 1000.0
DIIS = <class 'pyscf.scf.diis.CDIIS'>
DIIS start cycle = 1
DIIS space = 8
SCF tol = 1e-09
SCF gradient tol = None
max. SCF cycles = 50
direct_scf = True
direct_scf_tol = 1e-13
chkfile to save SCF result = /rc_scratch/bamu3429/tmpyN_9Cf
max_memory 4000 MB (current use 174 MB)
num. doubly occ = 8  num. singly occ = 1
Set gradient conv threshold to 3.16228e-05
init E= -61.8349242978225
  HOMO = 499.880893169521  LUMO = 1000.01118633395
cycle= 1 E= -61.8349242978224  delta_E= 1.42e-14  |g|= 3.58e-06  |ddm|= 1.96e-08
  HOMO = -0.119106830303637  LUMO = 0.0111863339886343
Extra cycle  E= -61.8349242978276  delta_E= -5.16e-12  |g|= 8.17e-07  |ddm|= 7.39e-06
converged SCF energy = -61.8349242978276
**** MO energy ****
                Roothaan           | alpha              | beta
MO #1   energy= -2.65016894780609  | -2.65479866037063  | -2.64553923482828  occ= 2
MO #2   energy= -1.66198276500375  | -1.66703863111669  | -1.65692689838962  occ= 2
MO #3   energy= -1.62687183808889  | -1.62918424546255  | -1.62455943071523  occ= 2
MO #4   energy= -1.62687183808889  | -1.62918424546255  | -1.62455943071523  occ= 2
MO #5   energy= -1.11748297727926  | -1.11850708110229  | -1.11645887346389  occ= 2
MO #6   energy= -0.42982427943856  | -0.431336973717192 | -0.428311579347913 occ= 2
MO #7   energy= -0.420732877377176 | -0.42144641825571  | -0.420019336498641 occ= 2
MO #8   energy= -0.420732877377172 | -0.421446418255709 | -0.420019336498638 occ= 2
MO #9   energy= -0.119106830303637 | -0.24787191377604  | 0.00965825025556906 occ= 1
MO #10  energy= 0.0111863339886343 | 0.00448815825045624 | 0.0178845097268158 occ= 0
MO #11  energy= 0.0111863339886354 | 0.00448815825045672 | 0.0178845097268153 occ= 0
MO #12  energy= 0.0154091141249285 | 0.0139486276986775 | 0.0168696153930942 occ= 0
MO #13  energy= 0.0222076309247331 | 0.021067028946549  | 0.02334822524788   occ= 0
MO #14  energy= 0.0280020923646582 | 0.0278514200181549 | 0.0281527647111651 occ= 0
MO #15  energy= 0.0280020923646584 | 0.0278514200181533 | 0.0281527647111633 occ= 0
MO #16  energy= 0.0315997434580036 | 0.031285935068547  | 0.0319135518474644 occ= 0
MO #17  energy= 0.031599743458006  | 0.0312859350685489 | 0.0319135518474653 occ= 0
MO #18  energy= 0.0361833482849508 | 0.0360852184429035 | 0.0362814769709418 occ= 0
MO #19  energy= 0.043577252048479  | 0.0320303496607304 | 0.0551241544362254 occ= 0
MO #20  energy= 0.043577252048481  | 0.0320303496607346 | 0.0551241544362273 occ= 0
MO #21  energy= 0.0592745546883432 | 0.0492587236948952 | 0.0692903654183456 occ= 0
MO #22  energy= 0.0742904038109389 | 0.069684541822872  | 0.0788962657990037 occ= 0
MO #23  energy= 0.0742904038109396 | 0.0696845418228738 | 0.0788962657990054 occ= 0
MO #24  energy= 0.0899404299812396 | 0.088947236136001  | 0.0909336238264808 occ= 0
MO #25  energy= 0.0899404299812554 | 0.0889472361360148 | 0.0909336238264954 occ= 0
MO #26  energy= 0.100026152857058  | 0.0956894870110241 | 0.104362876830918  occ= 0
MO #27  energy= 0.113262682324756  | 0.110614820087584  | 0.115910524429498  occ= 0
MO #28  energy= 0.132456667818911  | 0.127357501214508  | 0.137555834423318  occ= 0
MO #29  energy= 0.132456667818922  | 0.127357501214517  | 0.137555834423327  occ= 0
MO #30  energy= 0.152497433324588  | 0.141946517710789  | 0.163048348938391  occ= 0
MO #31  energy= 0.15249743332459   | 0.141946517710792  | 0.163048348938389  occ= 0
MO #32  energy= 0.155223514493691  | 0.146298955921633  | 0.164148035497999  occ= 0
MO #33  energy= 0.210298121367693  | 0.209172671422041  | 0.21142357131334   occ= 0
MO #34  energy= 0.210298121367743  | 0.20917267142209   | 0.211423571313399  occ= 0
MO #35  energy= 0.226378850144733  | 0.220686367049581  | 0.23207133323989   occ= 0
MO #36  energy= 0.226378850144742  | 0.220686367049592  | 0.232071333239889  occ= 0
MO #37  energy= 0.233996044506605  | 0.231826648698911  | 0.236165439616863  occ= 0
MO #38  energy= 0.326640264586189  | 0.32242486770983   | 0.330855655237624  occ= 0
MO #39  energy= 0.360013322826384  | 0.352824481197571  | 0.367202164455196  occ= 0
MO #40  energy= 0.360013322826414  | 0.352824481197604  | 0.367202164455229  occ= 0
MO #41  energy= 0.360198551900267  | 0.354928565745236  | 0.365468538055295  occ= 0
MO #42  energy= 0.360198551900268  | 0.35492856574524   | 0.365468538055298  occ= 0
MO #43  energy= 0.364777689003244  | 0.35765003349621   | 0.371905344510278  occ= 0
MO #44  energy= 0.364777689003247  | 0.357650033496213  | 0.371905344510279  occ= 0
MO #45  energy= 0.376166841680971  | 0.366686263169361  | 0.385647437509829  occ= 0
MO #46  energy= 0.415999565153486  | 0.412554828091812  | 0.41944430221516   occ= 0
MO #47  energy= 0.415999565153535  | 0.412554828091861  | 0.41944430221521   occ= 0
MO #48  energy= 0.462904013810754  | 0.458669683829992  | 0.467138343791509  occ= 0
MO #49  energy= 0.462904013810953  | 0.458669683830206  | 0.467138343791712  occ= 0
MO #50  energy= 0.485684366779948  | 0.478392235545186  | 0.492976497657257  occ= 0
MO #51  energy= 0.507404080017381  | 0.502620869424963  | 0.512187291545763  occ= 0
MO #52  energy= 0.647918955907117  | 0.64593022273242   | 0.649907689081811  occ= 0
MO #53  energy= 0.647918955907148  | 0.645930222732456  | 0.649907689081843  occ= 0
MO #54  energy= 0.648068288851283  | 0.646971492509601  | 0.649165085192963  occ= 0
MO #55  energy= 0.648068288851298  | 0.646971492509617  | 0.64916508519298   occ= 0
MO #56  energy= 0.649022209837787  | 0.647982483434667  | 0.650061936607743  occ= 0
MO #57  energy= 0.779103614337266  | 0.776598609388344  | 0.781608619286194  occ= 0
MO #58  energy= 0.779103614337356  | 0.776598609388438  | 0.781608619286282  occ= 0
MO #59  energy= 0.941232334609243  | 0.940069696667754  | 0.942394972516496  occ= 0
MO #60  energy= 0.968756534458114  | 0.964814223340121  | 0.972698844592432  occ= 0
MO #61  energy= 1.08461357971045   | 1.07922598140135   | 1.09000117801955   occ= 0
MO #62  energy= 1.08461357971045   | 1.07922598140135   | 1.09000117801955   occ= 0
MO #63  energy= 1.0865337971933    | 1.08208991122124   | 1.09097768316535   occ= 0
MO #64  energy= 1.08653379719343   | 1.08208991122139   | 1.09097768316548   occ= 0
MO #65  energy= 1.08862926579354   | 1.08404974715488   | 1.09320878443219   occ= 0
MO #66  energy= 1.08862926579354   | 1.08404974715489   | 1.09320878443219   occ= 0
MO #67  energy= 1.15129005716774   | 1.14549001804187   | 1.15709009629361   occ= 0
MO #68  energy= 1.15129005716775   | 1.14549001804189   | 1.15709009629363   occ= 0
MO #69  energy= 1.24098442484453   | 1.23233299595323   | 1.2496358540725    occ= 0
MO #70  energy= 1.33043801987262   | 1.32852704113044   | 1.33234899861481   occ= 0
MO #71  energy= 1.33043801987262   | 1.32852704113044   | 1.33234899861481   occ= 0
MO #72  energy= 1.42604594120343   | 1.42193560782127   | 1.4301562745262    occ= 0
MO #73  energy= 1.47137359777477   | 1.46714366145219   | 1.47560353409734   occ= 0
MO #74  energy= 1.47137359777478   | 1.4671436614522    | 1.47560353409735   occ= 0
MO #75  energy= 1.49593296440221   | 1.49085898154869   | 1.50100694725574   occ= 0
MO #76  energy= 1.49593296440222   | 1.49085898154869   | 1.50100694725574   occ= 0
MO #77  energy= 1.49754106235273   | 1.49501073282635   | 1.50007139187911   occ= 0
MO #78  energy= 1.49754106235273   | 1.49501073282636   | 1.50007139187912   occ= 0
MO #79  energy= 1.59170642921113   | 1.58912234122092   | 1.59429051720135   occ= 0
MO #80  energy= 1.59170642921113   | 1.58912234122092   | 1.59429051720136   occ= 0
MO #81  energy= 1.66822564278094   | 1.66679208592231   | 1.66965919963957   occ= 0
MO #82  energy= 1.66822564278095   | 1.66679208592232   | 1.66965919963958   occ= 0
MO #83  energy= 1.67267820941056   | 1.67177273416284   | 1.67358368453914   occ= 0
MO #84  energy= 1.68801026987273   | 1.6846425764601    | 1.69137796328535   occ= 0
MO #85  energy= 1.68801026987273   | 1.6846425764601    | 1.69137796328535   occ= 0
MO #86  energy= 1.75036470617735   | 1.7474026813892    | 1.75332673089032   occ= 0
MO #87  energy= 1.75995342303635   | 1.75730657491885   | 1.76260027115385   occ= 0
MO #88  energy= 1.75995342303636   | 1.75730657491885   | 1.76260027115386   occ= 0
MO #89  energy= 1.9588257117159    | 1.95620771642291   | 1.96144370695723   occ= 0
MO #90  energy= 1.96670472788643   | 1.96462618269841   | 1.96878327307446   occ= 0
MO #91  energy= 1.96670472788645   | 1.96462618269843   | 1.96878327307448   occ= 0
MO #92  energy= 2.25737506789815   | 2.25541946811065   | 2.25933066749146   occ= 0
MO #93  energy= 2.26850256537562   | 2.2666695545628    | 2.27033557618843   occ= 0
MO #94  energy= 2.26850256537568   | 2.26666955456286   | 2.27033557618849   occ= 0
MO #95  energy= 2.53415462842467   | 2.5334167246557    | 2.53489253219366   occ= 0
MO #96  energy= 2.53415462842473   | 2.53341672465575   | 2.53489253219371   occ= 0
MO #97  energy= 2.61928305641642   | 2.61766004786304   | 2.62090606489909   occ= 0
MO #98  energy= 2.91990511033109   | 2.91866815282144   | 2.92114206784074   occ= 0
MO #99  energy= 2.91990511033109   | 2.91866815282144   | 2.92114206784073   occ= 0
MO #100 energy= 2.9328488786951    | 2.93144436800826   | 2.93425338938195   occ= 0
MO #101 energy= 2.93284887869512   | 2.93144436800827   | 2.93425338938197   occ= 0
MO #102 energy= 2.93513503256      | 2.93400495442776   | 2.93626511069222   occ= 0
MO #103 energy= 2.93513503256      | 2.93400495442777   | 2.93626511069224   occ= 0
MO #104 energy= 2.9391316106858    | 2.93745359902078   | 2.94080962233218   occ= 0
MO #105 energy= 3.1356451635061    | 3.13478221217192   | 3.13650811484028   occ= 0
MO #106 energy= 3.1356451635061    | 3.13478221217193   | 3.13650811484028   occ= 0
MO #107 energy= 3.68083480978221   | 3.6806483738647    | 3.68102124569973   occ= 0
MO #108 energy= 3.68083480978221   | 3.6806483738647    | 3.68102124569973   occ= 0
MO #109 energy= 3.69052028592415   | 3.68995020311036   | 3.69109036873793   occ= 0
MO #110 energy= 3.69052028592415   | 3.68995020311036   | 3.69109036873793   occ= 0
MO #111 energy= 3.72404737607793   | 3.72150759911717   | 3.72658715303868   occ= 0
MO #112 energy= 3.72404737607796   | 3.72150759911722   | 3.72658715303872   occ= 0
MO #113 energy= 3.81731949968687   | 3.81672338399241   | 3.81791561538133   occ= 0
MO #114 energy= 3.81731949968688   | 3.81672338399242   | 3.81791561538134   occ= 0
MO #115 energy= 3.84422137467406   | 3.84291119118561   | 3.84553155807158   occ= 0
MO #116 energy= 4.01744983066178   | 4.01647825554132   | 4.01842140578225   occ= 0
MO #117 energy= 4.01744983066178   | 4.01647825554131   | 4.01842140578224   occ= 0
MO #118 energy= 4.09085980378876   | 4.08771853479777   | 4.09400107267345   occ= 0
MO #119 energy= 4.11806513652574   | 4.11795617768658   | 4.11817409536489   occ= 0
MO #120 energy= 4.11806513652574   | 4.11795617768659   | 4.11817409536489   occ= 0
MO #121 energy= 4.13677158676994   | 4.13623179015987   | 4.13731138338221   occ= 0
MO #122 energy= 4.26204907034173   | 4.26179444173357   | 4.26230369894989   occ= 0
MO #123 energy= 4.26204907034173   | 4.26179444173358   | 4.26230369894989   occ= 0
MO #124 energy= 4.29925269418532   | 4.29901903538872   | 4.29948635298192   occ= 0
MO #125 energy= 4.29925269418534   | 4.29901903538876   | 4.29948635298194   occ= 0
MO #126 energy= 4.31239056159327   | 4.31030479217684   | 4.31447633100971   occ= 0
MO #127 energy= 4.31239056159328   | 4.31030479217685   | 4.31447633100971   occ= 0
MO #128 energy= 4.38145739638457   | 4.3798655423597    | 4.38304925040945   occ= 0
MO #129 energy= 4.38145739638457   | 4.3798655423597    | 4.38304925040944   occ= 0
MO #130 energy= 4.38690936148746   | 4.38565929626826   | 4.38815942670667   occ= 0
MO #131 energy= 4.38690936148747   | 4.38565929626827   | 4.38815942670667   occ= 0
MO #132 energy= 4.40080270780875   | 4.39973721382367   | 4.40186820179536   occ= 0
MO #133 energy= 4.45336524472525   | 4.45244491586407   | 4.45428557358644   occ= 0
MO #134 energy= 4.45336524472526   | 4.45244491586407   | 4.45428557358644   occ= 0
MO #135 energy= 4.46333231705673   | 4.4621191943659    | 4.46454543974757   occ= 0
MO #136 energy= 4.46333231705673   | 4.4621191943659    | 4.46454543974757   occ= 0
MO #137 energy= 4.52160126975548   | 4.52109209272446   | 4.52211044678652   occ= 0
MO #138 energy= 4.5216012697555    | 4.52109209272447   | 4.52211044678653   occ= 0
MO #139 energy= 4.65523747902156   | 4.65435711202572   | 4.65611784601742   occ= 0
MO #140 energy= 4.65523747902156   | 4.65435711202571   | 4.65611784601742   occ= 0
MO #141 energy= 4.79019301015437   | 4.78915933934782   | 4.79122668096094   occ= 0
MO #142 energy= 4.79019301015437   | 4.78915933934782   | 4.79122668096094   occ= 0
MO #143 energy= 4.85795085962388   | 4.85745161213573   | 4.85845010712151   occ= 0
MO #144 energy= 4.97382150880436   | 4.97307280804861   | 4.9745702095665    occ= 0
MO #145 energy= 4.97780551992113   | 4.97698267784074   | 4.97862836200153   occ= 0
MO #146 energy= 4.97780551992115   | 4.97698267784075   | 4.97862836200155   occ= 0
MO #147 energy= 5.21021112394591   | 5.20929870768009   | 5.2111235402223    occ= 0
MO #148 energy= 5.42862389471908   | 5.42806239046928   | 5.42918539896888   occ= 0
MO #149 energy= 5.42862389471909   | 5.42806239046929   | 5.42918539896888   occ= 0
MO #150 energy= 5.68878603551452   | 5.68810331262278   | 5.68946875840623   occ= 0
MO #151 energy= 5.68878603551459   | 5.68810331262286   | 5.6894687584063    occ= 0
MO #152 energy= 5.7115042824892    | 5.71091300301911   | 5.71209556195928   occ= 0
MO #153 energy= 5.7115042824892    | 5.71091300301912   | 5.71209556195928   occ= 0
MO #154 energy= 6.43450156655765   | 6.43312394762347   | 6.43587918555185   occ= 0
MO #155 energy= 6.65937655536163   | 6.65840737260322   | 6.66034573812002   occ= 0
MO #156 energy= 6.65937655536177   | 6.65840737260338   | 6.66034573812016   occ= 0
MO #157 energy= 6.79470634348479   | 6.79336982899068   | 6.79604285798853   occ= 0
MO #158 energy= 7.57859491789288   | 7.5770432064291    | 7.5801466293627    occ= 0
MO #159 energy= 7.83483571514094   | 7.83410421198789   | 7.83556721829398   occ= 0
MO #160 energy= 7.83483571514094   | 7.83410421198789   | 7.83556721829399   occ= 0
MO #161 energy= 7.91782120705725   | 7.91655435176784   | 7.91908806234666   occ= 0
MO #162 energy= 7.91782120705727   | 7.91655435176787   | 7.91908806234668   occ= 0
MO #163 energy= 8.43415724944123   | 8.432623186521     | 8.43569131236144   occ= 0
MO #164 energy= 8.43415724944128   | 8.43262318652105   | 8.43569131236149   occ= 0
MO #165 energy= 9.07611342456439   | 9.07500415188379   | 9.07722269724812   occ= 0
MO #166 energy= 9.67355246544717   | 9.67329743198128   | 9.67380749891305   occ= 0
MO #167 energy= 9.67355246544752   | 9.67329743198161   | 9.67380749891343   occ= 0
MO #168 energy= 10.2102437087792   | 10.2091903817731   | 10.2112970357854   occ= 0
MO #169 energy= 10.2102437087793   | 10.2091903817732   | 10.2112970357855   occ= 0
MO #170 energy= 10.6254361157831   | 10.6253104866773   | 10.6255617448893   occ= 0
MO #171 energy= 10.6746760428169   | 10.6746458085546   | 10.6747062770791   occ= 0
MO #172 energy= 10.6746760428169   | 10.6746458085546   | 10.6747062770791   occ= 0
MO #173 energy= 10.7492576575216   | 10.746347279707    | 10.7521680353529   occ= 0
MO #174 energy= 10.776815969633    | 10.7767584973479   | 10.7768734419181   occ= 0
MO #175 energy= 10.776815969633    | 10.7767584973479   | 10.7768734419181   occ= 0
MO #176 energy= 10.9677960442154   | 10.9676436085882   | 10.9679484798427   occ= 0
MO #177 energy= 10.9677960442155   | 10.9676436085882   | 10.9679484798427   occ= 0
MO #178 energy= 10.9757311576056   | 10.9756583363732   | 10.975803978838    occ= 0
MO #179 energy= 10.9757311576056   | 10.9756583363732   | 10.975803978838    occ= 0
MO #180 energy= 11.0893520221097   | 11.0889511502985   | 11.0897528939213   occ= 0
MO #181 energy= 11.6031200497239   | 11.6028524720461   | 11.6033876274018   occ= 0
MO #182 energy= 11.6031200497239   | 11.6028524720461   | 11.6033876274017   occ= 0
MO #183 energy= 11.6152651084826   | 11.6147549621098   | 11.6157752548554   occ= 0
MO #184 energy= 11.6152651084826   | 11.6147549621098   | 11.6157752548555   occ= 0
MO #185 energy= 11.6412706185347   | 11.6408893277854   | 11.6416519092839   occ= 0
MO #186 energy= 11.6412706185347   | 11.6408893277854   | 11.641651909284    occ= 0
MO #187 energy= 11.7082224196971   | 11.7077791334924   | 11.7086657059018   occ= 0
MO #188 energy= 11.7082224196971   | 11.7077791334924   | 11.7086657059018   occ= 0
MO #189 energy= 11.8228721199783   | 11.8219774921634   | 11.8237667477932   occ= 0
MO #190 energy= 11.8228721199783   | 11.8219774921635   | 11.8237667477932   occ= 0
MO #191 energy= 11.8379776483975   | 11.8369963268732   | 11.8389589699252   occ= 0
MO #192 energy= 11.9365353721856   | 11.9358742022473   | 11.9371965421239   occ= 0
MO #193 energy= 11.9365353721856   | 11.9358742022473   | 11.9371965421239   occ= 0
MO #194 energy= 12.3479997691418   | 12.3474428810118   | 12.3485566572714   occ= 0
MO #195 energy= 12.5257969622103   | 12.5255429288799   | 12.5260509955407   occ= 0
MO #196 energy= 12.5257969622103   | 12.5255429288799   | 12.5260509955407   occ= 0
MO #197 energy= 12.5445151597506   | 12.5441928282244   | 12.5448374912768   occ= 0
MO #198 energy= 12.5445151597506   | 12.5441928282244   | 12.5448374912768   occ= 0
MO #199 energy= 12.6160493139601   | 12.6154158893016   | 12.6166827386187   occ= 0
MO #200 energy= 12.6160493139601   | 12.6154158893016   | 12.6166827386187   occ= 0
MO #201 energy= 12.6457701141061   | 12.645280928916    | 12.6462592992961   occ= 0
MO #202 energy= 12.6457701141061   | 12.645280928916    | 12.6462592992961   occ= 0
MO #203 energy= 12.6866394380892   | 12.6864999632366   | 12.6867789129419   occ= 0
MO #204 energy= 12.6866394380892   | 12.6864999632366   | 12.6867789129419   occ= 0
MO #205 energy= 12.8185991767733   | 12.8181762733784   | 12.8190220801682   occ= 0
MO #206 energy= 12.8185991767733   | 12.8181762733784   | 12.8190220801682   occ= 0
MO #207 energy= 12.8959239779838   | 12.8953777238499   | 12.8964702321177   occ= 0
MO #208 energy= 12.8959239779838   | 12.89537772385     | 12.8964702321177   occ= 0
MO #209 energy= 13.2342750372852   | 13.2337454134199   | 13.2348046611509   occ= 0
MO #210 energy= 13.2477229806689   | 13.2474185858899   | 13.2480273754479   occ= 0
MO #211 energy= 13.2477229806689   | 13.2474185858899   | 13.2480273754479   occ= 0
MO #212 energy= 13.7472675443638   | 13.7469062393627   | 13.7476288493647   occ= 0
MO #213 energy= 16.137169962931    | 16.136710224844    | 16.1376297010182   occ= 0
MO #214 energy= 20.5140182031088   | 20.5139241219503   | 20.5141122842659   occ= 0
 ** Mulliken pop on meta-lowdin orthogonal AOs  **
 ** Mulliken pop  **
pop of  0Sc 3s        1.99925
pop of  0Sc 4s        0.88795
pop of  0Sc 5s        0.00385
pop of  0Sc 6s        0.00194
pop of  0Sc 7s        0.00024
pop of  0Sc 8s        0.00098
pop of  0Sc 9s        0.00080
pop of  0Sc 3px       1.99901
pop of  0Sc 3py       1.99901
pop of  0Sc 3pz       1.99508
pop of  0Sc 4px       0.00804
pop of  0Sc 4py       0.00804
pop of  0Sc 4pz       0.06587
pop of  0Sc 5px       0.00018
pop of  0Sc 5py       0.00018
pop of  0Sc 5pz       0.00722
pop of  0Sc 6px       0.00006
pop of  0Sc 6py       0.00006
pop of  0Sc 6pz       0.00197
pop of  0Sc 7px       0.00004
pop of  0Sc 7py       0.00004
pop of  0Sc 7pz       0.00082
pop of  0Sc 8px       0.00077
pop of  0Sc 8py       0.00077
pop of  0Sc 8pz       0.01942
pop of  0Sc 9px       0.00006
pop of  0Sc 9py       0.00006
pop of  0Sc 9pz       0.00266
pop of  0Sc 3dxy      0.00000
pop of  0Sc 3dyz      0.30661
pop of  0Sc 3dz^2     0.47385
pop of  0Sc 3dxz      0.30661
pop of  0Sc 3dx2-y2    0.00000
pop of  0Sc 4dxy      0.00000
pop of  0Sc 4dyz      0.00011
pop of  0Sc 4dz^2     0.01203
pop of  0Sc 4dxz      0.00011
pop of  0Sc 4dx2-y2    0.00000
pop of  0Sc 5dxy      0.00000
pop of  0Sc 5dyz      0.00021
pop of  0Sc 5dz^2     0.00261
pop of  0Sc 5dxz      0.00021
pop of  0Sc 5dx2-y2    0.00000
pop of  0Sc 6dxy      0.00000
pop of  0Sc 6dyz      0.00001
pop of  0Sc 6dz^2     0.00026
pop of  0Sc 6dxz      0.00001
pop of  0Sc 6dx2-y2    0.00000
pop of  0Sc 7dxy      0.00000
pop of  0Sc 7dyz      0.00002
pop of  0Sc 7dz^2     0.00106
pop of  0Sc 7dxz      0.00002
pop of  0Sc 7dx2-y2    0.00000
pop of  0Sc 8dxy      0.00000
pop of  0Sc 8dyz      0.00000
pop of  0Sc 8dz^2     0.00005
pop of  0Sc 8dxz      0.00000
pop of  0Sc 8dx2-y2    0.00000
pop of  0Sc 4fy^3     0.00000
pop of  0Sc 4fxyz     0.00000
pop of  0Sc 4fyz^2    0.00009
pop of  0Sc 4fz^3     0.00019
pop of  0Sc 4fxz^2    0.00009
pop of  0Sc 4fzx^2    0.00000
pop of  0Sc 4fx^3     0.00000
pop of  0Sc 5fy^3     0.00000
pop of  0Sc 5fxyz     0.00000
pop of  0Sc 5fyz^2    0.00085
pop of  0Sc 5fz^3     0.00103
pop of  0Sc 5fxz^2    0.00085
pop of  0Sc 5fzx^2    0.00000
pop of  0Sc 5fx^3     0.00000
pop of  0Sc 6fy^3     0.00000
pop of  0Sc 6fxyz     0.00000
pop of  0Sc 6fyz^2    0.00118
pop of  0Sc 6fz^3     0.00470
pop of  0Sc 6fxz^2    0.00118
pop of  0Sc 6fzx^2    0.00000
pop of  0Sc 6fx^3     0.00000
pop of  0Sc 7fy^3     0.00000
pop of  0Sc 7fxyz     0.00000
pop of  0Sc 7fyz^2    0.00049
pop of  0Sc 7fz^3     0.00235
pop of  0Sc 7fxz^2    0.00049
pop of  0Sc 7fzx^2    0.00000
pop of  0Sc 7fx^3     0.00000
pop of  0Sc 5g-4      0.00000
pop of  0Sc 5g-3      0.00000
pop of  0Sc 5g-2      0.00000
pop of  0Sc 5g-1      0.00000
pop of  0Sc 5g 0      0.00001
pop of  0Sc 5g 1      0.00000
pop of  0Sc 5g 2      0.00000
pop of  0Sc 5g 3      0.00000
pop of  0Sc 5g 4      0.00000
pop of  0Sc 6g-4      0.00000
pop of  0Sc 6g-3      0.00000
pop of  0Sc 6g-2      0.00000
pop of  0Sc 6g-1      0.00006
pop of  0Sc 6g 0      0.00009
pop of  0Sc 6g 1      0.00006
pop of  0Sc 6g 2      0.00000
pop of  0Sc 6g 3      0.00000
pop of  0Sc 6g 4      0.00000
pop of  0Sc 7g-4      0.00000
pop of  0Sc 7g-3      0.00000
pop of  0Sc 7g-2      0.00000
pop of  0Sc 7g-1      0.00001
pop of  0Sc 7g 0      0.00160
pop of  0Sc 7g 1      0.00001
pop of  0Sc 7g 2      0.00000
pop of  0Sc 7g 3      0.00000
pop of  0Sc 7g 4      0.00000
pop of  0Sc 6h-5      0.00000
pop of  0Sc 6h-4      0.00000
pop of  0Sc 6h-3      0.00000
pop of  0Sc 6h-2      0.00000
pop of  0Sc 6h-1      0.00000
pop of  0Sc 6h 0      0.00000
pop of  0Sc 6h 1      0.00000
pop of  0Sc 6h 2      0.00000
pop of  0Sc 6h 3      0.00000
pop of  0Sc 6h 4      0.00000
pop of  0Sc 6h 5      0.00000
pop of  0Sc 7h-5      0.00000
pop of  0Sc 7h-4      0.00000
pop of  0Sc 7h-3      0.00000
pop of  0Sc 7h-2      0.00000
pop of  0Sc 7h-1      0.00001
pop of  0Sc 7h 0      0.00021
pop of  0Sc 7h 1      0.00001
pop of  0Sc 7h 2      0.00000
pop of  0Sc 7h 3      0.00000
pop of  0Sc 7h 4      0.00000
pop of  0Sc 7h 5      0.00000
pop of  1O 2s        1.84621
pop of  1O 3s        0.00213
pop of  1O 4s        0.00041
pop of  1O 5s        0.00704
pop of  1O 6s        0.01886
pop of  1O 2px       1.66748
pop of  1O 2py       1.66748
pop of  1O 2pz       1.61837
pop of  1O 3px       0.00086
pop of  1O 3py       0.00086
pop of  1O 3pz       0.00044
pop of  1O 4px       0.00033
pop of  1O 4py       0.00033
pop of  1O 4pz       0.00079
pop of  1O 5px       0.00460
pop of  1O 5py       0.00460
pop of  1O 5pz       0.00189
pop of  1O 6px       0.00234
pop of  1O 6py       0.00234
pop of  1O 6pz       0.00527
pop of  1O 3dxy      0.00000
pop of  1O 3dyz      0.00007
pop of  1O 3dz^2     0.00010
pop of  1O 3dxz      0.00007
pop of  1O 3dx2-y2    0.00000
pop of  1O 4dxy      0.00000
pop of  1O 4dyz      0.00087
pop of  1O 4dz^2     0.00116
pop of  1O 4dxz      0.00087
pop of  1O 4dx2-y2    0.00000
pop of  1O 5dxy      0.00000
pop of  1O 5dyz      0.00274
pop of  1O 5dz^2     0.00231
pop of  1O 5dxz      0.00274
pop of  1O 5dx2-y2    0.00000
pop of  1O 6dxy      0.00000
pop of  1O 6dyz      0.00268
pop of  1O 6dz^2     0.00556
pop of  1O 6dxz      0.00268
pop of  1O 6dx2-y2    0.00000
pop of  1O 4fy^3     0.00000
pop of  1O 4fxyz     0.00000
pop of  1O 4fyz^2    0.00001
pop of  1O 4fz^3     0.00002
pop of  1O 4fxz^2    0.00001
pop of  1O 4fzx^2    0.00000
pop of  1O 4fx^3     0.00000
pop of  1O 5fy^3     0.00000
pop of  1O 5fxyz     0.00000
pop of  1O 5fyz^2    0.00011
pop of  1O 5fz^3     0.00017
pop of  1O 5fxz^2    0.00011
pop of  1O 5fzx^2    0.00000
pop of  1O 5fx^3     0.00000
pop of  1O 6fy^3     0.00000
pop of  1O 6fxyz     0.00000
pop of  1O 6fyz^2    0.00009
pop of  1O 6fz^3     0.00106
pop of  1O 6fxz^2    0.00009
pop of  1O 6fzx^2    0.00000
pop of  1O 6fx^3     0.00000
pop of  1O 5g-4      0.00000
pop of  1O 5g-3      0.00000
pop of  1O 5g-2      0.00000
pop of  1O 5g-1      0.00000
pop of  1O 5g 0      0.00001
pop of  1O 5g 1      0.00000
pop of  1O 5g 2      0.00000
pop of  1O 5g 3      0.00000
pop of  1O 5g 4      0.00000
pop of  1O 6g-4      0.00000
pop of  1O 6g-3      0.00000
pop of  1O 6g-2      0.00000
pop of  1O 6g-1      0.00000
pop of  1O 6g 0      0.00013
pop of  1O 6g 1      0.00000
pop of  1O 6g 2      0.00000
pop of  1O 6g 3      0.00000
pop of  1O 6g 4      0.00000
 ** Mulliken atomic charges  **
charge of  0Sc =      0.87630
charge of  1O =     -0.87630

******** <class 'pyscf.mcscf.mc1step.CASSCF'> flags ********
CAS (4e+3e, 9o), ncore = 5, nvir = 200
max_cycle_macro = 50
max_cycle_micro = 4
conv_tol = 1e-07
conv_tol_grad = None
orbital rotation max_stepsize = 0.02
augmented hessian ah_max_cycle = 30
augmented hessian ah_conv_tol = 1e-12
augmented hessian ah_linear dependence = 1e-14
augmented hessian ah_level shift = 0
augmented hessian ah_start_tol = 2.5
augmented hessian ah_start_cycle = 3
augmented hessian ah_grad_trust_region = 3
kf_trust_region = 3
kf_interval = 4
ci_response_space = 4
ci_grad_trust_region = 3
with_dep4 0
natorb = False
canonicalization = True
sorting_mo_energy = False
chkfile = ./scratch/87689/tmp3zlTiL
max_memory 4000 MB (current use 2719 MB)
internal_rotation = False

******** SHCI flags ********
executable             = /home/bamu3429/softwares/dice/Dice
mpiprefix              = srun -n20
scratchDirectory       = ./scratch/87689
integralFile           = ./FCIDUMP
configFile             = ./input.dat
outputFile             = ./output.dat
maxIter                = 6
sweep_iter             = []
sweep_epsilon          = []
nPTiter                = 0
Stochastic             = True
fullrestart            = False
restart                = False
num_thrds              = 12
memory                 = None

CASCI E = -61.8349287908412  S^2 = 0.7500000
Set conv_tol_grad to 0.000316228
macro iter 1 (7 JK  2 micro), CASSCF E = -61.8349474497632  dE = -1.8658922e-05  S^2 = 0.7500000
               |grad[o]|=5.3e-05  |grad[c]|= None  |ddm|=0.00662
macro iter 2 (7 JK  2 micro), CASSCF E = -61.835039567007  dE = -9.2117244e-05  S^2 = 0.7500000
               |grad[o]|=0.000191  |grad[c]|= None  |ddm|=0.000716
macro iter 3 (7 JK  2 micro), CASSCF E = -61.8355255506769  dE = -0.00048598367  S^2 = 0.7500000
               |grad[o]|=0.00128  |grad[c]|= None  |ddm|=0.00626
macro iter 4 (21 JK  4 micro), CASSCF E = -61.8462299568148  dE = -0.010704406  S^2 = 0.7500000
               |grad[o]|=0.00557  |grad[c]|= None  |ddm|=0.0267
macro iter 5 (21 JK  4 micro), CASSCF E = -61.8557109836444  dE = -0.0094810268  S^2 = 0.7500000
               |grad[o]|=0.0327  |grad[c]|= None  |ddm|=0.0254
macro iter 6 (21 JK  4 micro), CASSCF E = -61.8916272021584  dE = -0.035916219  S^2 = 0.7500000
               |grad[o]|=0.0396  |grad[c]|= None  |ddm|=0.0412
macro iter 7 (21 JK  4 micro), CASSCF E = -61.9410736379509  dE = -0.049446436  S^2 = 0.7500000
               |grad[o]|=0.0816  |grad[c]|= None  |ddm|=0.0286
macro iter 8 (21 JK  4 micro), CASSCF E = -61.9663171453175  dE = -0.025243507  S^2 = 0.7500000
               |grad[o]|=0.0622  |grad[c]|= None  |ddm|=0.0243
macro iter 9 (21 JK  4 micro), CASSCF E = -61.9681868956004  dE = -0.0018697503  S^2 = 0.7500000
               |grad[o]|=0.0119  |grad[c]|= None  |ddm|=0.00636
macro iter 10 (21 JK  4 micro), CASSCF E = -61.9702320485336  dE = -0.0020451529  S^2 = 0.7500000
               |grad[o]|=0.00762  |grad[c]|= None  |ddm|=0.00412
macro iter 11 (19 JK  4 micro), CASSCF E = -61.9707839535793  dE = -0.00055190505  S^2 = 0.7500000
               |grad[o]|=0.00469  |grad[c]|= None  |ddm|=0.0157
macro iter 12 (16 JK  4 micro), CASSCF E = -61.9708268425838  dE = -4.2889005e-05  S^2 = 0.7500000
               |grad[o]|=0.00436  |grad[c]|= None  |ddm|=0.00501
macro iter 13 (18 JK  4 micro), CASSCF E = -61.9708350574312  dE = -8.2148474e-06  S^2 = 0.7500000
               |grad[o]|=0.000739  |grad[c]|= None  |ddm|=0.00206
macro iter 14 (15 JK  4 micro), CASSCF E = -61.9708627073668  dE = -2.7649936e-05  S^2 = 0.7500000
               |grad[o]|=0.00053  |grad[c]|= None  |ddm|=0.003
macro iter 15 (12 JK  4 micro), CASSCF E = -61.9709502833902  dE = -8.7576023e-05  S^2 = 0.7500000
               |grad[o]|=0.000963  |grad[c]|= None  |ddm|=0.00632
macro iter 16 (14 JK  4 micro), CASSCF E = -61.9711249085496  dE = -0.00017462516  S^2 = 0.7500000
               |grad[o]|=0.00203  |grad[c]|= None  |ddm|=0.00693
macro iter 17 (20 JK  4 micro), CASSCF E = -61.9718698509063  dE = -0.00074494236  S^2 = 0.7500000
               |grad[o]|=0.00157  |grad[c]|= None  |ddm|=0.00152
macro iter 18 (21 JK  4 micro), CASSCF E = -61.9744452799958  dE = -0.0025754291  S^2 = 0.7500000
               |grad[o]|=0.00207  |grad[c]|= None  |ddm|=0.00417
macro iter 19 (16 JK  4 micro), CASSCF E = -61.9748274252219  dE = -0.00038214523  S^2 = 0.7500000
               |grad[o]|=0.00279  |grad[c]|= None  |ddm|=0.00603
macro iter 20 (12 JK  3 micro), CASSCF E = -61.9748279952028  dE = -5.6998091e-07  S^2 = 0.7500000
               |grad[o]|=0.00059  |grad[c]|= None  |ddm|=0.000766
macro iter 21 (3 JK  1 micro), CASSCF E = -61.9748280012813  dE = -6.0785226e-09  S^2 = 0.7500000
               |grad[o]|=7.59e-05  |grad[c]|= None  |ddm|=3.72e-05
1-step CASSCF converged in 21 macro (334 JK 74 micro) steps
CASSCF canonicalization
CASSCF energy = -61.9748280012813


--------------------------------------------------
                 ICMPSPT CALCULATION              
--------------------------------------------------

Perturbation type: MRLCC
With fully internally contracted scheme
With third order correction

Preparing necessary RDMs
......production of RDMs took      45.58 sec
Reading binary 4RDM from DICE
......reading the RDM took         27.68 sec

(GOOD) Trace 4RDM:    840.0 =    7*    6*    5*    4
(GOOD) Trace 3RDM:    210.0 =    7*    6*    5
(GOOD) Trace 2RDM:     42.0 =    7*    6
(GOOD) Trace 1RDM:      7.0 =    7

Producing the integrals
......production of INT took     573.75 sec

Energy_core =  -70.20833514
Energy      =  -61.97482800

WARNING: Have to use natural orbitals from CAASCF
         offdiagonal elements:    0.89685853

Basic ingredients written to int/
......savings of INGREDIENTS took     262.37 sec

Second-order:
perturber CCVV --        -0.215027013
perturber CCAV --        -0.065479781
perturber ACVV --        -0.101191466
perturber CCAA --        -0.019675213
perturber AAVV --        -0.077799410
perturber CAAV --        -0.084322140
