 &FCI NORB=9 ,NELEC=12 ,MS2=4,
  ORBSYM=1,1,1,1,1,1,1,1,1,
  ISYM=1,
 &END
  8.844127569229e-01    1  1  1  1
  5.199703380969e-03    2  1  2  1
  3.750062090063e-01    2  2  1  1
  6.267189905189e-01    2  2  2  2
  2.662356839489e-03    3  1  3  1
  1.309231962013e-03    3  2  3  1
  3.051098100026e-02    3  2  3  2
  3.336857212955e-01    3  3  1  1
  5.889723640612e-04    3  3  2  1
  5.871849732706e-01    3  3  2  2
  6.733205531645e-01    3  3  3  3
 -1.870317357056e-05    4  1  3  2
  2.662356839489e-03    4  1  4  1
 -1.870317357056e-05    4  2  3  1
 -1.309231962013e-03    4  2  4  1
  3.051098100026e-02    4  2  4  2
 -8.197787069404e-06    4  3  2  1
 -2.803078858351e-09    4  3  3  3
  3.118372688989e-02    4  3  4  3
  3.336857212955e-01    4  4  1  1
 -5.889723640616e-04    4  4  2  1
  5.871849732706e-01    4  4  2  2
  6.109526738100e-01    4  4  3  3
  2.803081224960e-09    4  4  4  3
  6.733205531645e-01    4  4  4  4
 -9.896311273426e-03    5  1  2  1
  2.511427868307e-03    5  1  3  3
 -3.550213227514e-05    5  1  4  3
 -2.511427868307e-03    5  1  4  4
  3.611807094706e-02    5  1  5  1
 -1.308902274285e-01    5  2  1  1
  3.169322238992e-02    5  2  2  2
  4.122224175210e-02    5  2  3  3
  4.122224175210e-02    5  2  4  4
  5.138902861583e-02    5  2  5  2
  7.255633145374e-04    5  3  3  1
  5.527019298736e-03    5  3  3  2
 -9.888025631539e-06    5  3  4  1
  7.925149549031e-08    5  3  4  2
  4.245574555337e-03    5  3  5  3
 -9.888025631539e-06    5  4  3  1
 -7.925149544543e-08    5  4  3  2
 -7.255633145374e-04    5  4  4  1
  5.527019298736e-03    5  4  4  2
  4.245574555337e-03    5  4  5  4
  7.582382649942e-01    5  5  1  1
  3.965507832903e-01    5  5  2  2
  3.504433125595e-01    5  5  3  3
  3.504433125595e-01    5  5  4  4
 -1.316198541540e-01    5  5  5  2
  7.798470965483e-01    5  5  5  5
 -2.659548954538e-03    6  1  3  1
 -8.711475157426e-04    6  1  3  2
  6.846534630885e-03    6  1  4  1
 -2.151262165810e-03    6  1  4  2
  4.612796111065e-04    6  1  5  3
  1.137996295423e-03    6  1  5  4
  3.329711471536e-02    6  1  6  1
 -4.989197086090e-04    6  2  3  1
  1.732688185681e-03    6  2  3  2
 -1.232776918382e-03    6  2  4  1
 -4.461006909853e-03    6  2  4  2
  5.745782967699e-04    6  2  5  3
 -1.479322043408e-03    6  2  5  4
 -1.857865152829e-03    6  2  6  1
  6.725939226116e-03    6  2  6  2
 -4.129986641771e-02    6  3  1  1
  3.521791910876e-04    6  3  2  1
  1.766635139462e-02    6  3  2  2
  2.894075339603e-02    6  3  3  3
 -6.369267258963e-03    6  3  4  3
  2.399303694915e-02    6  3  4  4
 -1.325162947997e-03    6  3  5  1
  1.560255858652e-02    6  3  5  2
 -3.706705796461e-02    6  3  5  5
  9.964567503147e-03    6  3  6  3
  1.063186998873e-01    6  4  1  1
  8.686804335158e-04    6  4  2  1
 -4.548323251925e-02    6  4  2  2
 -6.176986102074e-02    6  4  3  3
  2.473978595726e-03    6  4  4  3
 -7.450782580088e-02    6  4  4  4
 -3.271519780211e-03    6  4  5  1
 -4.016639317585e-02    6  4  5  2
  9.542162171929e-02    6  4  5  5
 -1.616772458593e-02    6  4  6  3
  4.530643498632e-02    6  4  6  4
  6.780315816436e-04    6  5  3  1
  1.296895276693e-03    6  5  3  2
  1.673179478936e-03    6  5  4  1
 -3.338243453517e-03    6  5  4  2
 -1.336576522615e-03    6  5  5  3
  3.441006727269e-03    6  5  5  4
  5.686310193007e-03    6  5  6  1
 -4.713302520082e-03    6  5  6  2
  2.199333846890e-02    6  5  6  5
  8.059491288000e-01    6  6  1  1
  3.830056817944e-03    6  6  2  1
  4.051489043402e-01    6  6  2  2
  3.601927690041e-01    6  6  3  3
 -3.348630915701e-03    6  6  4  3
  3.675132265915e-01    6  6  4  4
 -1.195365301156e-02    6  6  5  1
 -1.310658709795e-01    6  6  5  2
  7.765420639639e-01    6  6  5  5
 -4.259465528770e-02    6  6  6  3
  1.096509657244e-01    6  6  6  4
  8.639645900976e-01    6  6  6  6
  6.846534630885e-03    7  1  3  1
  2.151262165810e-03    7  1  3  2
  2.659548954538e-03    7  1  4  1
 -8.711475157426e-04    7  1  4  2
 -1.137996295423e-03    7  1  5  3
  4.612796111065e-04    7  1  5  4
 -1.749214659906e-03    7  1  6  2
  5.355995485269e-03    7  1  6  5
  3.329711471536e-02    7  1  7  1
  1.232776918382e-03    7  2  3  1
 -4.461006909853e-03    7  2  3  2
 -4.989197086090e-04    7  2  4  1
 -1.732688185680e-03    7  2  4  2
 -1.479322043408e-03    7  2  5  3
 -5.745782967698e-04    7  2  5  4
 -1.749214659906e-03    7  2  6  1
  6.448401287134e-08    7  2  6  5
  1.857865152830e-03    7  2  7  1
  6.725939226116e-03    7  2  7  2
  1.063186998873e-01    7  3  1  1
 -8.686804335156e-04    7  3  2  1
 -4.548323251925e-02    7  3  2  2
 -7.450782580088e-02    7  3  3  3
 -2.473978595727e-03    7  3  4  3
 -6.176986102074e-02    7  3  4  4
  3.271519780211e-03    7  3  5  1
 -4.016639317585e-02    7  3  5  2
  9.542162171929e-02    7  3  5  5
 -1.616800120361e-02    7  3  6  3
  3.793740476167e-02    7  3  6  4
  9.772875022772e-02    7  3  6  6
  4.530643498632e-02    7  3  7  3
  4.129986641770e-02    7  4  1  1
  3.521791910877e-04    7  4  2  1
 -1.766635139462e-02    7  4  2  2
 -2.399303694915e-02    7  4  3  3
 -6.369267258964e-03    7  4  4  3
 -2.894075339603e-02    7  4  4  4
 -1.325162947997e-03    7  4  5  1
 -1.560255858652e-02    7  4  5  2
  3.706705796461e-02    7  4  5  5
 -2.596112177905e-03    7  4  6  3
  1.616800120361e-02    7  4  6  4
  3.796345807334e-02    7  4  6  6
  1.616772458593e-02    7  4  7  3
  9.964567503146e-03    7  4  7  4
 -1.673179478936e-03    7  5  3  1
 -3.338243453517e-03    7  5  3  2
  6.780315816436e-04    7  5  4  1
 -1.296895276692e-03    7  5  4  2
  3.441006727269e-03    7  5  5  3
  1.336576522615e-03    7  5  5  4
  5.355995485269e-03    7  5  6  1
 -6.448401288709e-08    7  5  6  2
 -5.686310193007e-03    7  5  7  1
 -4.713302520082e-03    7  5  7  2
  2.199333846890e-02    7  5  7  5
  3.608304126300e-03    7  6  2  1
 -3.349223268857e-03    7  6  3  3
  3.659622682857e-03    7  6  4  3
  3.349223268856e-03    7  6  4  4
 -1.125770891267e-02    7  6  5  1
  5.960996673375e-03    7  6  6  3
  2.315822457380e-03    7  6  6  4
 -5.682025741068e-07    7  6  6  6
 -2.315822457380e-03    7  6  7  3
  5.960996673375e-03    7  6  7  4
  3.287160117668e-02    7  6  7  6
  8.059491288000e-01    7  7  1  1
 -3.830056817944e-03    7  7  2  1
  4.051489043402e-01    7  7  2  2
  3.675132265915e-01    7  7  3  3
  3.348630915700e-03    7  7  4  3
  3.601927690041e-01    7  7  4  4
  1.195365301156e-02    7  7  5  1
 -1.310658709795e-01    7  7  5  2
  7.765420639639e-01    7  7  5  5
 -3.796345807334e-02    7  7  6  3
  9.772875022772e-02    7  7  6  4
  7.982215439754e-01    7  7  6  6
  1.096509657244e-01    7  7  7  3
  4.259465528770e-02    7  7  7  4
  5.682025740162e-07    7  7  7  6
  8.639645900976e-01    7  7  7  7
  8.765574187969e-05    8  1  1  1
  1.468081945572e-05    8  1  2  2
  8.117573072647e-06    8  1  3  3
  8.117573072660e-06    8  1  4  4
 -2.069976306875e-05    8  1  5  2
  6.987266610215e-05    8  1  5  5
 -5.475972361673e-06    8  1  6  3
  1.457693475215e-05    8  1  6  4
  7.938354347390e-05    8  1  6  6
  1.457693475212e-05    8  1  7  3
  5.475972361623e-06    8  1  7  4
  7.938354347366e-05    8  1  7  7
  1.904684824010e-02    8  1  8  1
  8.673868766937e-07    8  2  2  1
 -8.306279621231e-06    8  2  3  3
 -5.430870403754e-04    8  2  4  3
  8.306279621088e-06    8  2  4  4
 -3.231071430657e-06    8  2  5  1
  9.018878888687e-04    8  2  6  3
 -3.650272481591e-04    8  2  6  4
 -3.718652368252e-03    8  2  6  6
  3.650272481592e-04    8  2  7  3
  9.018878888688e-04    8  2  7  4
  3.951032503123e-03    8  2  7  6
  3.718652368252e-03    8  2  7  7
  5.308253667065e-03    8  2  8  2
 -2.864147482826e-07    8  3  3  1
 -1.884898240272e-05    8  3  3  2
  1.260004596966e-03    8  3  4  1
 -1.269626666745e-03    8  3  4  2
 -9.932650559256e-06    8  3  5  3
 -6.647603447728e-04    8  3  5  4
  3.145322801136e-03    8  3  6  1
 -1.203336544253e-03    8  3  6  2
  1.675416469502e-03    8  3  6  5
  1.222431585283e-03    8  3  7  1
 -4.874737007029e-04    8  3  7  2
  6.788997720533e-04    8  3  7  5
  2.621981948745e-03    8  3  8  3
 -1.260004596966e-03    8  4  3  1
 -1.269626666745e-03    8  4  3  2
 -2.864147482786e-07    8  4  4  1
  1.884898240273e-05    8  4  4  2
 -6.647603447728e-04    8  4  5  3
  9.932650559245e-06    8  4  5  4
  1.222431585283e-03    8  4  6  1
  4.874737007029e-04    8  4  6  2
 -6.788997720534e-04    8  4  6  5
 -3.145322801136e-03    8  4  7  1
 -1.203336544253e-03    8  4  7  2
  1.675416469502e-03    8  4  7  5
  2.621981948745e-03    8  4  8  4
 -2.900522492703e-06    8  5  2  1
 -3.554657365979e-05    8  5  3  3
 -2.456037389728e-03    8  5  4  3
  3.554657365979e-05    8  5  4  4
  1.399700221974e-06    8  5  5  1
 -3.277839611164e-03    8  5  6  3
  1.327608704463e-03    8  5  6  4
  1.127520360375e-02    8  5  6  6
 -1.327608704463e-03    8  5  7  3
 -3.277839611164e-03    8  5  7  4
 -1.197287295845e-02    8  5  7  6
 -1.127520360375e-02    8  5  7  7
 -1.027910116954e-02    8  5  8  2
  3.629178566168e-02    8  5  8  5
 -3.159968944928e-03    8  6  3  1
 -2.136193626968e-03    8  6  3  2
 -1.226677683966e-03    8  6  4  1
  8.653898330651e-04    8  6  4  2
  1.155181134285e-03    8  6  5  3
 -4.678991456834e-04    8  6  5  4
  4.531029316850e-06    8  6  6  1
  1.719508925991e-03    8  6  6  2
 -5.442315525499e-03    8  6  6  5
 -1.502921636999e-02    8  6  7  1
 -1.825383169960e-03    8  6  7  2
  5.780897663815e-03    8  6  7  5
 -2.688461700688e-03    8  6  8  3
  6.921704629506e-03    8  6  8  4
  3.386358289445e-02    8  6  8  6
 -1.226677683966e-03    8  7  3  1
 -8.653898330651e-04    8  7  3  2
  3.159968944928e-03    8  7  4  1
 -2.136193626968e-03    8  7  4  2
  4.678991456834e-04    8  7  5  3
  1.155181134285e-03    8  7  5  4
  1.502921636999e-02    8  7  6  1
 -1.825383169960e-03    8  7  6  2
  5.780897663815e-03    8  7  6  5
  4.531029316713e-06    8  7  7  1
 -1.719508925991e-03    8  7  7  2
  5.442315525499e-03    8  7  7  5
  6.921704629506e-03    8  7  8  3
  2.688461700688e-03    8  7  8  4
  3.386358289445e-02    8  7  8  7
  8.572585316073e-01    8  8  1  1
  3.768898737147e-01    8  8  2  2
  3.347510575502e-01    8  8  3  3
  3.347510575502e-01    8  8  4  4
 -1.334602951478e-01    8  8  5  2
  7.669630664238e-01    8  8  5  5
 -4.199848997979e-02    8  8  6  3
  1.081172011734e-01    8  8  6  4
  8.158559490687e-01    8  8  6  6
  1.081172011734e-01    8  8  7  3
  4.199848997979e-02    8  8  7  4
  8.158559490687e-01    8  8  7  7
  9.017070134406e-05    8  8  8  1
  9.066043832996e-01    8  8  8  8
 -5.258618728913e-03    9  1  2  1
 -4.059376383626e-04    9  1  3  3
  5.560453357636e-06    9  1  4  3
  4.059376383625e-04    9  1  4  4
  5.737096530411e-03    9  1  5  1
 -2.642547701338e-04    9  1  6  3
 -6.516174686321e-04    9  1  6  4
 -2.346429230036e-03    9  1  6  6
  6.516174686322e-04    9  1  7  3
 -2.642547701338e-04    9  1  7  4
 -2.211505573427e-03    9  1  7  6
  2.346429230036e-03    9  1  7  7
 -5.444458570773e-07    9  1  8  2
  4.687574700043e-06    9  1  8  5
  7.835627079672e-03    9  1  9  1
 -5.570012786996e-02    9  2  1  1
  1.602726375614e-01    9  2  2  2
  1.567911527127e-01    9  2  3  3
  1.567911527127e-01    9  2  4  4
  4.795400724670e-02    9  2  5  2
 -4.081199256024e-02    9  2  5  5
  1.857426754904e-02    9  2  6  3
 -4.781733127642e-02    9  2  6  4
 -4.242893060155e-02    9  2  6  6
 -4.781733127642e-02    9  2  7  3
 -1.857426754904e-02    9  2  7  4
 -4.242893060155e-02    9  2  7  7
 -7.367478803580e-06    9  2  8  1
 -5.658853114725e-02    9  2  8  8
  1.002118129943e-01    9  2  9  2
  1.839185108634e-04    9  3  3  1
  1.144306072278e-02    9  3  3  2
 -2.463486821290e-06    9  3  4  1
 -9.660927125799e-09    9  3  4  2
  3.279225239008e-03    9  3  5  3
  6.433109115650e-08    9  3  5  4
  6.970502235740e-05    9  3  6  1
  1.031953291625e-03    9  3  6  2
  1.758895105459e-05    9  3  6  5
 -1.718766911347e-04    9  3  7  1
 -2.657074313379e-03    9  3  7  2
 -4.526578432090e-05    9  3  7  5
 -2.399068821368e-06    9  3  8  3
 -1.945106762610e-04    9  3  8  4
  1.687406775661e-04    9  3  8  6
  6.855022442597e-05    9  3  8  7
  7.642414334116e-03    9  3  9  3
 -2.463486821282e-06    9  4  3  1
  9.660927232414e-09    9  4  3  2
 -1.839185108634e-04    9  4  4  1
  1.144306072278e-02    9  4  4  2
 -6.433109113674e-08    9  4  5  3
  3.279225239008e-03    9  4  5  4
  1.718766911347e-04    9  4  6  1
 -2.657074313379e-03    9  4  6  2
 -4.526578432090e-05    9  4  6  5
  6.970502235742e-05    9  4  7  1
 -1.031953291625e-03    9  4  7  2
 -1.758895105461e-05    9  4  7  5
 -1.945106762610e-04    9  4  8  3
  2.399068821359e-06    9  4  8  4
 -6.855022442600e-05    9  4  8  6
  1.687406775661e-04    9  4  8  7
  7.642414334116e-03    9  4  9  4
  1.086523404360e-01    9  5  1  1
  7.759003450998e-02    9  5  2  2
  6.547152587630e-02    9  5  3  3
  6.547152587630e-02    9  5  4  4
 -2.283903281662e-02    9  5  5  2
  1.199728836921e-01    9  5  5  5
 -3.942429650430e-03    9  5  6  3
  1.014935036749e-02    9  5  6  4
  1.209773557842e-01    9  5  6  6
  1.014935036749e-02    9  5  7  3
  3.942429650429e-03    9  5  7  4
  1.209773557842e-01    9  5  7  7
  2.070532843421e-05    9  5  8  1
  1.112458732102e-01    9  5  8  8
  1.458193787476e-02    9  5  9  2
  4.174108472513e-02    9  5  9  5
  1.176180612221e-04    9  6  3  1
  1.498316759446e-03    9  6  3  2
  2.901594631791e-04    9  6  4  1
 -3.857584397156e-03    9  6  4  2
 -2.333536265073e-04    9  6  5  3
  6.003547063899e-04    9  6  5  4
  2.809002287654e-03    9  6  6  1
 -3.375227798437e-03    9  6  6  2
  4.039956437284e-03    9  6  6  5
  2.645349351015e-03    9  6  7  1
  4.901562408135e-08    9  6  7  2
 -1.104780010934e-07    9  6  7  5
  2.890541312013e-04    9  6  8  3
 -1.172295210709e-04    9  6  8  4
 -2.594802735384e-03    9  6  8  6
  2.753562461665e-03    9  6  8  7
  2.778129594772e-04    9  6  9  3
 -7.153538373511e-04    9  6  9  4
  9.526175164132e-03    9  6  9  6
 -2.901594631791e-04    9  7  3  1
 -3.857584397156e-03    9  7  3  2
  1.176180612221e-04    9  7  4  1
 -1.498316759446e-03    9  7  4  2
  6.003547063899e-04    9  7  5  3
  2.333536265073e-04    9  7  5  4
  2.645349351015e-03    9  7  6  1
 -4.901562408999e-08    9  7  6  2
  1.104780011036e-07    9  7  6  5
 -2.809002287654e-03    9  7  7  1
 -3.375227798437e-03    9  7  7  2
  4.039956437284e-03    9  7  7  5
  1.172295210709e-04    9  7  8  3
  2.890541312013e-04    9  7  8  4
  2.753562461665e-03    9  7  8  6
  2.594802735384e-03    9  7  8  7
 -7.153538373511e-04    9  7  9  3
 -2.778129594772e-04    9  7  9  4
  9.526175164132e-03    9  7  9  7
 -6.450537052800e-07    9  8  2  1
  5.662693778996e-06    9  8  3  3
  3.505464193238e-04    9  8  4  3
 -5.662693779249e-06    9  8  4  4
  5.279031828055e-06    9  8  5  1
 -6.963063407734e-04    9  8  6  3
  2.815068027869e-04    9  8  6  4
  2.374033152248e-03    9  8  6  6
 -2.815068027869e-04    9  8  7  3
 -6.963063407734e-04    9  8  7  4
 -2.524690631540e-03    9  8  7  6
 -2.374033152248e-03    9  8  7  7
 -5.330761609672e-03    9  8  8  2
  6.358288033052e-03    9  8  8  5
 -7.033014257407e-07    9  8  9  1
  7.741603200907e-03    9  8  9  8
  3.890488282900e-01    9  9  1  1
  3.343771820113e-01    9  9  2  2
  3.095869821780e-01    9  9  3  3
  3.095869821780e-01    9  9  4  4
 -2.366321943459e-02    9  9  5  2
  3.867670420895e-01    9  9  5  5
 -7.183447816470e-03    9  9  6  3
  1.848912671096e-02    9  9  6  4
  3.954513997640e-01    9  9  6  6
  1.848912671096e-02    9  9  7  3
  7.183447816470e-03    9  9  7  4
  3.954513997640e-01    9  9  7  7
  1.482486728766e-05    9  9  8  1
  3.908859634235e-01    9  9  8  8
  9.312512461094e-04    9  9  9  2
  3.385913860063e-02    9  9  9  5
  3.254067703115e-01    9  9  9  9
 -6.666129816070e+00    1  1  0  0
 -5.492555234836e+00    2  2  0  0
 -5.313176753563e+00    3  3  0  0
 -5.313176753563e+00    4  4  0  0
  6.228141448096e-01    5  2  0  0
 -6.405925485935e+00    5  5  0  0
  1.434692765325e-01    6  3  0  0
 -3.693071984499e-01    6  4  0  0
 -6.690051910675e+00    6  6  0  0
 -3.693071984499e-01    7  3  0  0
 -1.434692765324e-01    7  4  0  0
 -6.690051910675e+00    7  7  0  0
 -4.443891546372e-04    8  1  0  0
 -6.719181239457e+00    8  8  0  0
 -4.225931336755e-01    9  2  0  0
 -8.815434350619e-01    9  5  0  0
 -4.027361902786e+00    9  9  0  0
   -100.009718313184   0  0  0  0
