#INFO: **** input file is /projects/bamu3429/BENCHMARK/fresh_atoms/MRPT/monoxides/FeO/mrpt.py ****
import json
from pyscf import gto,scf,mcscf, fci, lo, ci, cc
from pyscf.scf import ROHF, UHF,ROKS
import numpy as np
import pandas as pd

# THIS IS WERE IT STARTS ====================================

df=json.load(open("../../trail.json"))

spins={'ScO':1, 'TiO':2, 'VO':3, 'CrO':4, 'MnO':5, 'FeO':4, 'CuO':1}

nd={'Sc':(1,0), 'Ti':(2,0), 'V':(3,0), 'Cr':(5,0), 'Mn':(5,0), 'Fe':(5,1), 'Cu':(5,4)}

cas={'Sc':3, 'Ti':4, 'V':5, 'Cr':6, 'Mn':7, 'Fe':8, 'Cu':11}

re={'ScO':1.668, 'TiO':1.623, 'VO':1.591, 'CrO':1.621, 'MnO':1.648, 'FeO':1.616, 'CuO':1.725}

datacsv={}
for nm in ['basis','charge','method','molecule','pseudopotential',
           'totalenergy','totalenergy-stocherr','totalenergy-syserr']:
  datacsv[nm]=[]

basis='vdz'
element='Fe'

mol=gto.Mole()
mol.ecp={}
mol.basis={}
for el in [element,'O']:
  mol.ecp[el]=gto.basis.parse_ecp(df[el]['ecp'])
  mol.basis[el]=gto.basis.parse(df[el][basis])
mol.charge=0
mol.spin=spins[element+'O']
mol.build(atom="%s 0. 0. 0.; O 0. 0. %g"%(element,re[element+'O']),verbose=4)

m=ROHF(mol)
m.level_shift=1000.0
dm=m.from_chk("../../../HF/monoxides/"+element+basis+"0.chk")
hf=m.kernel(dm)
m.analyze()

from pyscf.shciscf import shci
mc = shci.SHCISCF(m, 9, 4+cas[element])
#mc.fcisolver.conv_tol = 1e-14
mc.fcisolver.mpiprefix="mpirun -np 28"
mc.fcisolver.num_thrds=12
mc.verbose = 4
cas=mc.kernel()[0]
 
from pyscf.icmpspt import icmpspt
pt=icmpspt.icmpspt(mc,rdmM=500, PTM=1000,\
                          pttype="MRLCC",\
                          third_order=True,\
                          fully_ic=True,\
                          do_dm4=True)

datacsv['basis'].append(basis)
datacsv['charge'].append(0)
datacsv['method'].append('MRPT')
datacsv['molecule'].append(element)
datacsv['pseudopotential'].append('trail')
datacsv['totalenergy'].append(cas+pt)
datacsv['totalenergy-stocherr'].append(0.0)
datacsv['totalenergy-syserr'].append(0.0)
pd.DataFrame(datacsv).to_csv(element+".csv",index=False)

#INFO: ******************** input file end ********************


System: ('Linux', 'bnode0308.rc.int.colorado.edu', '3.10.0-514.41.1.el7.x86_64', '#1 SMP Wed Jan 17 10:26:16 EST 2018', 'x86_64', 'x86_64')  Threads 1
Python 2.7.11 (default, Mar 22 2016, 01:42:54) 
[GCC Intel(R) C++ gcc 4.8 mode]
numpy 1.11.1  scipy 0.17.1
Date: Mon Mar 26 10:56:04 2018
PySCF version 1.4
PySCF path  /projects/bamu3429/softwares/pyscf_uptodate/pyscf
GIT ORIG_HEAD e2292e6edec2b0e0024c21b81de03db1d7bd4121
GIT HEAD      ref: refs/heads/master
GIT master branch  f3591ef22170896a4cdc2aadaa6f5da388ffcadb

[INPUT] VERBOSE 4
[INPUT] num atoms = 2
[INPUT] num electrons = 22
[INPUT] charge = 0
[INPUT] spin (= nelec alpha-beta = 2S) = 4
[INPUT] symmetry False subgroup None
[INPUT]  1 Fe     0.000000000000   0.000000000000   0.000000000000 AA    0.000000000000   0.000000000000   0.000000000000 Bohr
[INPUT]  2 O      0.000000000000   0.000000000000   1.616000000000 AA    0.000000000000   0.000000000000   3.053797417297 Bohr
[INPUT] ---------------- BASIS SET ---------------- 
[INPUT] l, kappa, [nprim/nctr], expnt,             c_1 c_2 ...
[INPUT] Fe
[INPUT] 0    0    [12   /1   ]  41.79315189       0.013363
                                21.4479766        -0.225831
                                13.50597996       1.092302
                                9.47978339        -1.379238
                                4.48116767        0.183004
                                2.00533715        0.377557
                                1.21557711        0.591529
                                0.52042955        0.236703
                                0.24120153        -0.029854
                                0.11142434        0.02048
                                0.05213724        -0.006828
                                0.02419858        0.002604
[INPUT] 0    0    [12   /1   ]  41.79315189       -0.002034
                                21.4479766        0.04181
                                13.50597996       -0.22265
                                9.47978339        0.296462
                                4.48116767        -0.039261
                                2.00533715        -0.090727
                                1.21557711        -0.230375
                                0.52042955        -0.197211
                                0.24120153        0.111234
                                0.11142434        0.439139
                                0.05213724        0.516418
                                0.02419858        0.126845
[INPUT] 0    0    [12   /1   ]  41.79315189       -0.004323
                                21.4479766        0.132016
                                13.50597996       -0.841007
                                9.47978339        1.270608
                                4.48116767        -0.357855
                                2.00533715        -1.172638
                                1.21557711        0.080918
                                0.52042955        0.564238
                                0.24120153        0.803759
                                0.11142434        0.166439
                                0.05213724        -0.599817
                                0.02419858        -0.320989
[INPUT] 0    0    [1    /1   ]  0.02419858           1
[INPUT] 0    0    [1    /1   ]  0.01123134           1
[INPUT] 1    0    [12   /1   ]  66.19105244       0.00032
                                34.58074578       -0.003142
                                17.77781378       0.029707
                                9.38371315        -0.152873
                                5.85185491        0.094627
                                3.39352009        0.227547
                                1.80084269        0.448024
                                0.88349057        0.318306
                                0.45376195        0.097682
                                0.18864625        0.012314
                                0.07756623        -0.001004
                                0.03189313        0.000474
[INPUT] 1    0    [12   /1   ]  66.19105244       -1.8e-05
                                34.58074578       0.000416
                                17.77781378       -0.005911
                                9.38371315        0.03555
                                5.85185491        -0.025962
                                3.39352009        -0.059781
                                1.80084269        -0.122371
                                0.88349057        -0.102075
                                0.45376195        0.039881
                                0.18864625        0.346137
                                0.07756623        0.528115
                                0.03189313        0.237416
[INPUT] 1    0    [12   /1   ]  66.19105244       -0.000834
                                34.58074578       0.002604
                                17.77781378       0.016549
                                9.38371315        -0.211504
                                5.85185491        0.182022
                                3.39352009        0.789997
                                1.80084269        0.110593
                                0.88349057        -0.853215
                                0.45376195        -0.426908
                                0.18864625        0.584503
                                0.07756623        0.418096
                                0.03189313        0.004159
[INPUT] 1    0    [1    /1   ]  0.03189313           1
[INPUT] 1    0    [1    /1   ]  0.01311358           1
[INPUT] 2    0    [10   /1   ]  58.21685909       0.000311
                                24.96806153       -0.010386
                                12.44413704       0.126915
                                5.48395408        0.166806
                                2.79137309        0.262721
                                1.34407118        0.316542
                                0.61230651        0.280074
                                0.27095461        0.158069
                                0.12811374        0.049028
                                0.05904405        0.008369
[INPUT] 2    0    [10   /1   ]  58.21685909       0.000264
                                24.96806153       0.008003
                                12.44413704       -0.131894
                                5.48395408        -0.228203
                                2.79137309        -0.382561
                                1.34407118        -0.063105
                                0.61230651        0.332607
                                0.27095461        0.402603
                                0.12811374        0.213988
                                0.05904405        0.04923
[INPUT] 2    0    [1    /1   ]  0.05904405           1
[INPUT] 2    0    [1    /1   ]  0.02721175           1
[INPUT] 3    0    [1    /1   ]  2.703381             1
[INPUT] 3    0    [1    /1   ]  1.2459129            1
[INPUT] O
[INPUT] 0    0    [10   /1   ]  57.663349         -0.002794
                                35.726816         0.023976
                                22.453757         -0.115974
                                14.732301         0.288033
                                9.739917          -0.274786
                                5.042008          -0.083789
                                2.157818          0.063778
                                1.002916          0.410182
                                0.421839          0.504044
                                0.173041          0.172152
[INPUT] 0    0    [1    /1   ]  0.222099             1
[INPUT] 0    0    [1    /1   ]  0.08884              1
[INPUT] 1    0    [10   /1   ]  52.47406          -0.000522
                                32.138432         0.004857
                                19.458579         -0.027749
                                11.839344         0.074258
                                7.91003           0.014369
                                3.670858          0.153479
                                1.53966           0.283685
                                0.647119          0.358201
                                0.267853          0.29559
                                0.107198          0.104889
[INPUT] 1    0    [1    /1   ]  0.252604             1
[INPUT] 1    0    [1    /1   ]  0.101042             1
[INPUT] 2    0    [1    /1   ]  1.223113             1
[INPUT] 2    0    [1    /1   ]  0.489245             1
nuclear repulsion = 31.4362699556436
number of shells = 24
number of NR pGTOs = 334
number of NR cGTOs = 76
basis = {'Fe': [[0, [41.79315189, 0.013363], [21.4479766, -0.225831], [13.50597996, 1.092302], [9.47978339, -1.379238], [4.48116767, 0.183004], [2.00533715, 0.377557], [1.21557711, 0.591529], [0.52042955, 0.236703], [0.24120153, -0.029854], [0.11142434, 0.02048], [0.05213724, -0.006828], [0.02419858, 0.002604]], [0, [41.79315189, -0.002034], [21.4479766, 0.04181], [13.50597996, -0.22265], [9.47978339, 0.296462], [4.48116767, -0.039261], [2.00533715, -0.090727], [1.21557711, -0.230375], [0.52042955, -0.197211], [0.24120153, 0.111234], [0.11142434, 0.439139], [0.05213724, 0.516418], [0.02419858, 0.126845]], [0, [41.79315189, -0.004323], [21.4479766, 0.132016], [13.50597996, -0.841007], [9.47978339, 1.270608], [4.48116767, -0.357855], [2.00533715, -1.172638], [1.21557711, 0.080918], [0.52042955, 0.564238], [0.24120153, 0.803759], [0.11142434, 0.166439], [0.05213724, -0.599817], [0.02419858, -0.320989]], [0, [0.02419858, 1.0]], [0, [0.01123134, 1.0]], [1, [66.19105244, 0.00032], [34.58074578, -0.003142], [17.77781378, 0.029707], [9.38371315, -0.152873], [5.85185491, 0.094627], [3.39352009, 0.227547], [1.80084269, 0.448024], [0.88349057, 0.318306], [0.45376195, 0.097682], [0.18864625, 0.012314], [0.07756623, -0.001004], [0.03189313, 0.000474]], [1, [66.19105244, -1.8e-05], [34.58074578, 0.000416], [17.77781378, -0.005911], [9.38371315, 0.03555], [5.85185491, -0.025962], [3.39352009, -0.059781], [1.80084269, -0.122371], [0.88349057, -0.102075], [0.45376195, 0.039881], [0.18864625, 0.346137], [0.07756623, 0.528115], [0.03189313, 0.237416]], [1, [66.19105244, -0.000834], [34.58074578, 0.002604], [17.77781378, 0.016549], [9.38371315, -0.211504], [5.85185491, 0.182022], [3.39352009, 0.789997], [1.80084269, 0.110593], [0.88349057, -0.853215], [0.45376195, -0.426908], [0.18864625, 0.584503], [0.07756623, 0.418096], [0.03189313, 0.004159]], [1, [0.03189313, 1.0]], [1, [0.01311358, 1.0]], [2, [58.21685909, 0.000311], [24.96806153, -0.010386], [12.44413704, 0.126915], [5.48395408, 0.166806], [2.79137309, 0.262721], [1.34407118, 0.316542], [0.61230651, 0.280074], [0.27095461, 0.158069], [0.12811374, 0.049028], [0.05904405, 0.008369]], [2, [58.21685909, 0.000264], [24.96806153, 0.008003], [12.44413704, -0.131894], [5.48395408, -0.228203], [2.79137309, -0.382561], [1.34407118, -0.063105], [0.61230651, 0.332607], [0.27095461, 0.402603], [0.12811374, 0.213988], [0.05904405, 0.04923]], [2, [0.05904405, 1.0]], [2, [0.02721175, 1.0]], [3, [2.703381, 1.0]], [3, [1.2459129, 1.0]]], 'O': [[0, [57.663349, -0.002794], [35.726816, 0.023976], [22.453757, -0.115974], [14.732301, 0.288033], [9.739917, -0.274786], [5.042008, -0.083789], [2.157818, 0.063778], [1.002916, 0.410182], [0.421839, 0.504044], [0.173041, 0.172152]], [0, [0.222099, 1.0]], [0, [0.08884, 1.0]], [1, [52.47406, -0.000522], [32.138432, 0.004857], [19.458579, -0.027749], [11.839344, 0.074258], [7.91003, 0.014369], [3.670858, 0.153479], [1.53966, 0.283685], [0.647119, 0.358201], [0.267853, 0.29559], [0.107198, 0.104889]], [1, [0.252604, 1.0]], [1, [0.101042, 1.0]], [2, [1.223113, 1.0]], [2, [0.489245, 1.0]]]}
ecp = {'Fe': [10, [[-1, [[], [[16.90683491, 16.0]], [[18.40258134, 26847.81569895], [6.30300831, -133.54888707], [18.42848726, -26765.4049232], [18.43432023, 1.00742417]], [[7.01300654, 270.50935856]]]], [0, [[], [], [[9.62463353, 20308.8999348], [9.1270955, -17595.21707731], [7.5416384, 1884.69012383], [12.70900949, -4483.50209856], [8.14863339, -1094.38597968], [16.27611739, 1032.95376659]], []]], [1, [[], [], [[11.36514719, -905.00711112], [14.56762424, 34640.9358259], [15.05861359, -42299.94223895], [17.41337089, 10633.68808757], [18.3746752, -5844.19723669], [17.04734437, 3803.80414779]], []]], [2, [[], [], [[10.13935738, -11031.18647055], [13.45796076, 16711.37502047], [10.97387824, 37989.95033676], [11.92919033, -41782.92514683], [17.7123012, 3812.58339812], [17.32108913, -5718.00854971]], []]]]], 'O': [2, [[-1, [[], [[10.27717748, 6.0]], [[15.99566749, 1232.50197768], [10.46901775, -696.47008301], [14.6384801, -2654.22657081], [12.57591181, 2101.67732548]], [[7.77739102, 61.66306486]]]], [0, [[], [], [[12.39426073, -656683.37638839], [12.38126171, 657858.57667068], [8.57671033, 511.50098405], [9.89256508, -2579.54665641], [28.05641604, -57.68129584], [17.24753607, 970.30940152]], []]], [1, [[], [], [[14.78918914, -363027.24258186], [14.82014018, 361852.52314043], [22.89622221, -1300.20069256], [8.51331893, -181.96869573], [11.48609758, 2194.87589959], [27.22017524, 451.19906206]], []]]]]}
CPU time:         0.62


******** <class 'pyscf.scf.rohf.ROHF'> flags ********
method = ROHF
initial guess = minao
damping factor = 0
level shift factor = 1000.0
DIIS = <class 'pyscf.scf.diis.CDIIS'>
DIIS start cycle = 1
DIIS space = 8
SCF tol = 1e-09
SCF gradient tol = None
max. SCF cycles = 50
direct_scf = True
direct_scf_tol = 1e-13
chkfile to save SCF result = /projects/bamu3429/BENCHMARK/fresh_atoms/MRPT/monoxides/FeO/tmpvYA1ES
max_memory 4000 MB (current use 81 MB)
num. doubly occ = 9  num. singly occ = 4
Set gradient conv threshold to 3.16228e-05
init E= -138.663860280089
  HOMO = 499.856112553326  LUMO = 999.963224956173
cycle= 1 E= -138.663860280089  delta_E= -3.13e-13  |g|= 1.14e-05  |ddm|= 6.33e-08
  HOMO = -0.143887443558702  LUMO = -0.0367750438715387
Extra cycle  E= -138.663860280144  delta_E= -5.51e-11  |g|= 4.5e-06  |ddm|= 2.85e-05
converged SCF energy = -138.663860280144
**** MO energy ****
                Roothaan           | alpha              | beta
MO #1   energy= -4.40854731315013  | -4.58128075733457  | -4.23581389866895  occ= 2
MO #2   energy= -2.7990695020967   | -3.04688496840141  | -2.55125403336002  occ= 2
MO #3   energy= -2.78779898937436  | -2.97531468995783  | -2.60028328792298  occ= 2
MO #4   energy= -2.78779898937435  | -2.97531468995782  | -2.60028328792297  occ= 2
MO #5   energy= -1.11847121298977  | -1.13276806204221  | -1.10417435810386  occ= 2
MO #6   energy= -0.541984003404332 | -0.602422578735345 | -0.48154542807332  occ= 2
MO #7   energy= -0.414867148321645 | -0.445889430154583 | -0.383844831167873 occ= 2
MO #8   energy= -0.387287607603224 | -0.41499815232843  | -0.359576598157572 occ= 2
MO #9   energy= -0.387287607603223 | -0.41499815232843  | -0.359576598157572 occ= 2
MO #10  energy= -0.152973846741952 | -0.570251941621738 | 0.26430333250985   occ= 1
MO #11  energy= -0.14725886538192  | -0.622454352642017 | 0.327937525554344  occ= 1
MO #12  energy= -0.147258865381917 | -0.622454352642016 | 0.327937525554348  occ= 1
MO #13  energy= -0.143887443558702 | -0.648835551833433 | 0.361060822524501  occ= 1
MO #14  energy= -0.0367750438715387 | -0.0476198875061456 | -0.0259312976977936 occ= 0
MO #15  energy= 0.0180787739852867 | 0.0146395162747025 | 0.0215178298865412 occ= 0
MO #16  energy= 0.0187183183870964 | 0.0174726460423906 | 0.0199639410135702 occ= 0
MO #17  energy= 0.0187183183870969 | 0.0174726460423908 | 0.0199639410135702 occ= 0
MO #18  energy= 0.0371984604170053 | 0.0367153190752291 | 0.0376816617496407 occ= 0
MO #19  energy= 0.0710105418936647 | 0.0671426821861807 | 0.0748782662342975 occ= 0
MO #20  energy= 0.0710105418936705 | 0.0671426821861862 | 0.0748782662343042 occ= 0
MO #21  energy= 0.079400618182036  | 0.0792588458330837 | 0.0795423905309875 occ= 0
MO #22  energy= 0.0794428595469345 | 0.079155309723788  | 0.0797304029711219 occ= 0
MO #23  energy= 0.0889454417322207 | 0.0875560975895614 | 0.0903348276062736 occ= 0
MO #24  energy= 0.104804883722367  | 0.101737820950888  | 0.107871901706497  occ= 0
MO #25  energy= 0.10480488372237   | 0.101737820950888  | 0.107871901706499  occ= 0
MO #26  energy= 0.142608259944474  | 0.139197557390863  | 0.146019251741589  occ= 0
MO #27  energy= 0.161837963365947  | 0.149476014295591  | 0.174199918672967  occ= 0
MO #28  energy= 0.228804167452753  | 0.222981407671143  | 0.234626708849612  occ= 0
MO #29  energy= 0.228804167452755  | 0.222981407671145  | 0.234626708849613  occ= 0
MO #30  energy= 0.233525033043222  | 0.22620783512866   | 0.240842720142496  occ= 0
MO #31  energy= 0.244077005567527  | 0.240887308013592  | 0.247266703121461  occ= 0
MO #32  energy= 0.246712615279913  | 0.239182743067822  | 0.25424242662829   occ= 0
MO #33  energy= 0.321144642974659  | 0.301778886664091  | 0.34051038695931   occ= 0
MO #34  energy= 0.321144642974663  | 0.301778886664091  | 0.340510386959314  occ= 0
MO #35  energy= 0.448724476882487  | 0.440299387086554  | 0.457149897842728  occ= 0
MO #36  energy= 0.492828104255975  | 0.490855310182401  | 0.494800911824626  occ= 0
MO #37  energy= 0.492828104255998  | 0.490855310182426  | 0.494800911824647  occ= 0
MO #38  energy= 0.494363371512324  | 0.484356242078885  | 0.504370861771915  occ= 0
MO #39  energy= 1.24119463407702   | 1.21393631165103   | 1.26845306898261   occ= 0
MO #40  energy= 1.44324846125105   | 1.40188460957632   | 1.4846117823997    occ= 0
MO #41  energy= 1.44324846125105   | 1.40188460957632   | 1.48461178239971   occ= 0
MO #42  energy= 1.44683870909024   | 1.4406581382474    | 1.45301927993309   occ= 0
MO #43  energy= 1.45192238921455   | 1.4390675924928    | 1.46477718396453   occ= 0
MO #44  energy= 1.58576912449939   | 1.58179902767749   | 1.58973922628898   occ= 0
MO #45  energy= 1.62080968946242   | 1.61650894570155   | 1.62511042943992   occ= 0
MO #46  energy= 1.62080968946248   | 1.61650894570161   | 1.62511042943999   occ= 0
MO #47  energy= 1.76152547002085   | 1.73322190960756   | 1.78982903043415   occ= 0
MO #48  energy= 1.80274370216627   | 1.70378410566981   | 1.90170320786872   occ= 0
MO #49  energy= 1.9509722675676    | 1.89847098696229   | 2.00347360251951   occ= 0
MO #50  energy= 2.12629891723861   | 2.05364622347955   | 2.19895122061751   occ= 0
MO #51  energy= 2.12629891723861   | 2.05364622347955   | 2.19895122061751   occ= 0
MO #52  energy= 2.15533733032271   | 2.10243272678088   | 2.20824239166387   occ= 0
MO #53  energy= 2.34023705239705   | 2.31004594007299   | 2.37042815647173   occ= 0
MO #54  energy= 3.45051276661413   | 3.38612473092747   | 3.51490079869826   occ= 0
MO #55  energy= 3.53423552394113   | 3.46685923120425   | 3.60161182312174   occ= 0
MO #56  energy= 3.53423552394113   | 3.46685923120425   | 3.60161182312173   occ= 0
MO #57  energy= 3.59621154535071   | 3.52887736047875   | 3.6635457301586    occ= 0
MO #58  energy= 3.59621154535071   | 3.52887736047875   | 3.6635457301586    occ= 0
MO #59  energy= 3.60174315722921   | 3.5328074906032    | 3.67067882385521   occ= 0
MO #60  energy= 3.61278216388577   | 3.51346415938449   | 3.71210016847241   occ= 0
MO #61  energy= 3.81379687494539   | 3.73408759697226   | 3.89350614757569   occ= 0
MO #62  energy= 3.81379687494539   | 3.73408759697225   | 3.89350614757568   occ= 0
MO #63  energy= 4.29793985694842   | 4.29243592491477   | 4.30344378898208   occ= 0
MO #64  energy= 4.29795419043355   | 4.29186727299121   | 4.30404110780903   occ= 0
MO #65  energy= 4.42276135472793   | 4.41793639022569   | 4.42758631653892   occ= 0
MO #66  energy= 4.42276135472793   | 4.41793639022569   | 4.42758631653893   occ= 0
MO #67  energy= 4.48548061686098   | 4.41911906890721   | 4.55184215597636   occ= 0
MO #68  energy= 4.64463749186416   | 4.61232217159253   | 4.67695282040002   occ= 0
MO #69  energy= 8.65502759588693   | 8.62211194088652   | 8.687943249859     occ= 0
MO #70  energy= 9.68208309120331   | 9.60189872971932   | 9.76226745268731   occ= 0
MO #71  energy= 9.68302838371542   | 9.61339562313104   | 9.75266114498303   occ= 0
MO #72  energy= 9.68302838371542   | 9.61339562313105   | 9.75266114498303   occ= 0
MO #73  energy= 9.6849505361928    | 9.57197444634344   | 9.7979266282436    occ= 0
MO #74  energy= 9.78806654233041   | 9.68823938088913   | 9.887893707256     occ= 0
MO #75  energy= 9.78806654233045   | 9.68823938088917   | 9.88789370725605   occ= 0
MO #76  energy= 9.96773947253767   | 9.87513350459549   | 10.0603454469784   occ= 0
 ** Mulliken pop on meta-lowdin orthogonal AOs  **
 ** Mulliken pop  **
pop of  0Fe 3s        1.99993
pop of  0Fe 4s        0.37232
pop of  0Fe 5s        0.00783
pop of  0Fe 6s        0.00558
pop of  0Fe 7s        0.00144
pop of  0Fe 3px       1.99959
pop of  0Fe 3py       1.99959
pop of  0Fe 3pz       1.99870
pop of  0Fe 4px       0.04824
pop of  0Fe 4py       0.04824
pop of  0Fe 4pz       0.00340
pop of  0Fe 5px       0.00228
pop of  0Fe 5py       0.00228
pop of  0Fe 5pz       0.00129
pop of  0Fe 6px       0.00473
pop of  0Fe 6py       0.00473
pop of  0Fe 6pz       0.00186
pop of  0Fe 7px       0.00068
pop of  0Fe 7py       0.00068
pop of  0Fe 7pz       0.00039
pop of  0Fe 3dxy      1.99981
pop of  0Fe 3dyz      1.06998
pop of  0Fe 3dz^2     1.08106
pop of  0Fe 3dxz      1.06998
pop of  0Fe 3dx2-y2    0.99922
pop of  0Fe 4dxy      0.00005
pop of  0Fe 4dyz      0.00269
pop of  0Fe 4dz^2     0.00008
pop of  0Fe 4dxz      0.00269
pop of  0Fe 4dx2-y2    0.00037
pop of  0Fe 5dxy      0.00000
pop of  0Fe 5dyz      0.00162
pop of  0Fe 5dz^2     0.00084
pop of  0Fe 5dxz      0.00162
pop of  0Fe 5dx2-y2    0.00032
pop of  0Fe 6dxy      0.00000
pop of  0Fe 6dyz      0.00027
pop of  0Fe 6dz^2     0.00032
pop of  0Fe 6dxz      0.00027
pop of  0Fe 6dx2-y2    0.00001
pop of  0Fe 4fy^3     0.00003
pop of  0Fe 4fxyz     0.00002
pop of  0Fe 4fyz^2    0.00003
pop of  0Fe 4fz^3     0.00006
pop of  0Fe 4fxz^2    0.00003
pop of  0Fe 4fzx^2    0.00001
pop of  0Fe 4fx^3     0.00003
pop of  0Fe 5fy^3     0.00003
pop of  0Fe 5fxyz     0.00011
pop of  0Fe 5fyz^2    0.00026
pop of  0Fe 5fz^3     0.00019
pop of  0Fe 5fxz^2    0.00026
pop of  0Fe 5fzx^2    0.00006
pop of  0Fe 5fx^3     0.00003
pop of  1O 2s        1.90115
pop of  1O 3s        0.00193
pop of  1O 4s        0.00459
pop of  1O 2px       1.83961
pop of  1O 2py       1.83961
pop of  1O 2pz       1.60332
pop of  1O 3px       0.00771
pop of  1O 3py       0.00771
pop of  1O 3pz       0.00456
pop of  1O 4px       0.01469
pop of  1O 4py       0.01469
pop of  1O 4pz       0.00398
pop of  1O 3dxy      0.00001
pop of  1O 3dyz      0.00097
pop of  1O 3dz^2     0.00138
pop of  1O 3dxz      0.00097
pop of  1O 3dx2-y2    0.00000
pop of  1O 4dxy      0.00000
pop of  1O 4dyz      0.00661
pop of  1O 4dz^2     0.00379
pop of  1O 4dxz      0.00661
pop of  1O 4dx2-y2    0.00001
 ** Mulliken atomic charges  **
charge of  0Fe =      1.26389
charge of  1O =     -1.26389

******** <class 'pyscf.mcscf.mc1step.CASSCF'> flags ********
CAS (8e+4e, 9o), ncore = 5, nvir = 62
max_cycle_macro = 50
max_cycle_micro = 4
conv_tol = 1e-07
conv_tol_grad = None
orbital rotation max_stepsize = 0.02
augmented hessian ah_max_cycle = 30
augmented hessian ah_conv_tol = 1e-12
augmented hessian ah_linear dependence = 1e-14
augmented hessian ah_level shift = 0
augmented hessian ah_start_tol = 2.5
augmented hessian ah_start_cycle = 3
augmented hessian ah_grad_trust_region = 3
kf_trust_region = 3
kf_interval = 4
ci_response_space = 4
ci_grad_trust_region = 3
with_dep4 0
natorb = False
canonicalization = True
chkfile = ./scratch/142035/tmp6xWE3t
max_memory 4000 MB (current use 129 MB)
internal_rotation = False

******** SHCI flags ********
executable             = /home/bamu3429/softwares/dice/Dice
mpiprefix              = mpirun -np 28
scratchDirectory       = ./scratch/142035
integralFile           = ./FCIDUMP
configFile             = ./input.dat
outputFile             = ./output.dat
maxIter                = 6
sweep_iter             = []
sweep_epsilon          = []
nPTiter                = 0
Stochastic             = True
fullrestart            = False
restart                = False
num_thrds              = 12
memory                 = None

CASCI E = -138.675870270326  S^2 = 6.0000000
Set conv_tol_grad to 0.000316228
macro iter 1 (21 JK  4 micro), CASSCF E = -138.728940738512  dE = -0.053070468  S^2 = 6.0000000
               |grad[o]|=0.0871  |grad[c]|= None  |ddm|=0.428
macro iter 2 (12 JK  4 micro), CASSCF E = -138.749657621199  dE = -0.020716883  S^2 = 6.0000000
               |grad[o]|=0.152  |grad[c]|= None  |ddm|=0.309
macro iter 3 (9 JK  4 micro), CASSCF E = -138.749798327042  dE = -0.00014070584  S^2 = 6.0000000
               |grad[o]|=0.0157  |grad[c]|= None  |ddm|=0.0219
macro iter 4 (6 JK  2 micro), CASSCF E = -138.749798505593  dE = -1.7855083e-07  S^2 = 6.0000000
               |grad[o]|=0.000481  |grad[c]|= None  |ddm|=0.000667
macro iter 5 (3 JK  1 micro), CASSCF E = -138.749798511369  dE = -5.7765988e-09  S^2 = 6.0000000
               |grad[o]|=9.25e-05  |grad[c]|= None  |ddm|=    0
1-step CASSCF converged in 5 macro (51 JK 15 micro) steps
CASSCF canonicalization
CASSCF energy = -138.749798511369


--------------------------------------------------
                 ICMPSPT CALCULATION              
--------------------------------------------------

Perturbation type: MRLCC
With fully internally contracted scheme
With third order correction

Preparing necessary RDMs
......production of RDMs took      60.92 sec
Reading binary 4RDM from DICE
......reading the RDM took         26.47 sec

(GOOD) Trace 4RDM:  11880.0 =   12*   11*   10*    9
(GOOD) Trace 3RDM:   1320.0 =   12*   11*   10
(GOOD) Trace 2RDM:    132.0 =   12*   11
(GOOD) Trace 1RDM:     12.0 =   12

Producing the integrals
......production of INT took     167.40 sec

Energy_core =  -131.445988269
Energy      =  -138.749798511

WARNING: Have to use natural orbitals from CAASCF
         offdiagonal elements: 0.843217121701

Basic ingredients written to int/
......savings of INGREDIENTS took      29.27 sec

Second-order:
perturber CCVV --        -0.081273613
perturber CCAV --        -0.035842051
perturber ACVV --        -0.164169757
perturber CCAA --        -0.018051982
perturber AAVV --        -0.241987553
perturber CAAV --        -0.123820826
perturber AAAV --        -0.057205744
perturber AAAC --        -0.001787301
Total:                   -0.724138827

Third-order:              0.000066065

Total PT       --        -0.724072762

