 &FCI NORB=6 ,NELEC=10 ,MS2=0,
  ORBSYM=1,1,1,1,1,1,
  ISYM=1,
 &END
  1.014043311389e+00    1  1  1  1
 -2.320253560481e-09    2  1  1  1
  3.865090156307e-02    2  1  2  1
  9.367413743729e-01    2  2  1  1
  6.973684475969e-10    2  2  2  1
  1.014043094985e+00    2  2  2  2
  9.573289363191e-07    3  1  1  1
 -1.135112003613e-05    3  1  2  1
 -9.639209841513e-05    3  1  2  2
  4.392748474458e-02    3  1  3  1
  2.259998818548e-05    3  2  1  1
  4.787032530516e-05    3  2  2  1
  3.482687928494e-08    3  2  2  2
  1.754876699935e-04    3  2  3  1
  2.424447984165e-02    3  2  3  2
  9.262492566795e-01    3  3  1  1
 -3.502296139929e-04    3  3  2  1
  9.655316723064e-01    3  3  2  2
 -6.359390411253e-07    3  3  3  1
  2.210899538577e-08    3  3  3  2
  1.014005913176e+00    3  3  3  3
  1.031377479472e-08    4  1  1  1
  8.626435078899e-05    4  1  2  1
 -1.893946961367e-05    4  1  2  2
  7.070364031118e-05    4  1  3  1
  7.251303714762e-03    4  1  3  2
  3.557342206979e-05    4  1  3  3
  3.865000829871e-02    4  1  4  1
 -1.739733651876e-04    4  2  1  1
  9.520122132206e-06    4  2  2  1
  3.098162645792e-10    4  2  2  2
 -1.988489929213e-02    4  2  3  1
 -2.058819195821e-04    4  2  3  2
  1.049812517609e-04    4  2  3  3
 -1.864228026823e-04    4  2  4  1
  3.864723236043e-02    4  2  4  2
 -1.412516085813e-04    4  3  1  1
  1.260678398869e-02    4  3  2  1
  4.117242884041e-04    4  3  2  2
 -1.784926815363e-05    4  3  3  1
 -5.242029785267e-05    4  3  3  2
  2.435895991066e-07    4  3  3  3
 -1.472396563119e-04    4  3  4  1
  1.453123021909e-05    4  3  4  2
  3.035661965613e-02    4  3  4  3
  9.367432495316e-01    4  4  1  1
  3.733047531968e-04    4  4  2  1
  9.367486983115e-01    4  4  2  2
  2.941701201656e-04    4  4  3  1
 -2.897434141972e-05    4  4  3  2
  9.532909605971e-01    4  4  3  3
 -9.470903791375e-09    4  4  4  1
  2.666389544583e-10    4  4  4  2
 -1.223446542171e-07    4  4  4  3
  1.014043236473e+00    4  4  4  4
  1.984698192082e-07    5  1  1  1
 -1.381773646495e-05    5  1  2  1
 -1.032863565036e-04    5  1  2  2
  3.539261923475e-03    5  1  3  1
  4.826888959147e-05    5  1  3  2
 -3.075377452033e-05    5  1  3  3
  6.153207359986e-05    5  1  4  1
 -3.099608990511e-03    5  1  4  2
 -1.383300454900e-05    5  1  4  3
  1.337257406154e-04    5  1  4  4
  2.177815943168e-02    5  1  5  1
  2.759138662005e-05    5  2  1  1
  5.116214648436e-05    5  2  2  1
  6.177101043637e-08    5  2  2  2
 -2.752443925957e-04    5  2  3  1
  7.803948654126e-03    5  2  3  2
  2.438928036903e-05    5  2  3  3
  1.875753486783e-02    5  2  4  1
  1.065383681601e-04    5  2  4  2
 -1.880713244887e-04    5  2  4  3
 -5.200832658222e-05    5  2  4  4
  1.132970738836e-05    5  2  5  1
  4.142427339300e-02    5  2  5  2
 -7.057640439856e-03    5  3  1  1
  2.271520748173e-04    5  3  2  1
 -1.564266175960e-02    5  3  2  2
  1.500688795906e-05    5  3  3  1
 -1.220275629046e-05    5  3  3  2
 -1.870325574425e-05    5  3  3  3
  3.900092998192e-05    5  3  4  1
  2.274994551285e-04    5  3  4  2
 -1.682571339218e-04    5  3  4  3
  2.270029408952e-02    5  3  4  4
  9.930989717140e-05    5  3  5  1
 -3.221314340004e-06    5  3  5  2
  4.446948106446e-02    5  3  5  3
 -1.228820801948e-04    5  4  1  1
 -1.567205028602e-02    5  4  2  1
 -2.129014780717e-04    5  4  2  2
 -2.520861033046e-05    5  4  3  1
 -3.909368987348e-05    5  4  3  2
  3.355971754971e-04    5  4  3  3
 -6.648226471015e-05    5  4  4  1
  2.599272834046e-05    5  4  4  2
 -1.134320873861e-02    5  4  4  3
 -3.575538109093e-07    5  4  4  4
  8.327403827255e-06    5  4  5  1
 -3.417493795007e-05    5  4  5  2
  1.350777747308e-04    5  4  5  3
  3.532615950332e-02    5  4  5  4
  9.704918784160e-01    5  5  1  1
 -2.268130770786e-05    5  5  2  1
  9.311640768770e-01    5  5  2  2
 -1.978390736591e-04    5  5  3  1
  6.333428499191e-06    5  5  3  2
  9.251447766967e-01    5  5  3  3
 -1.663543306172e-05    5  5  4  1
  6.866169424701e-05    5  5  4  2
 -2.705749870163e-04    5  5  4  3
  9.434162167274e-01    5  5  4  4
  1.877564592424e-07    5  5  5  1
 -2.627063778231e-08    5  5  5  2
  1.921091605058e-05    5  5  5  3
  1.767365271494e-07    5  5  5  4
  1.014052767958e+00    5  5  5  5
 -1.671945336810e-05    6  1  1  1
  3.123129332193e-06    6  1  2  1
  1.932005290695e-05    6  1  2  2
 -1.478867444597e-03    6  1  3  1
 -1.804374512176e-05    6  1  3  2
  2.113886190650e-05    6  1  3  3
 -2.048225027428e-05    6  1  4  1
  1.297233596563e-03    6  1  4  2
  3.216410117312e-06    6  1  4  3
 -7.867127705094e-06    6  1  4  4
 -2.296884026800e-04    6  1  5  1
  9.014393328738e-07    6  1  5  2
  3.928528588477e-06    6  1  5  3
 -4.245603163561e-07    6  1  5  4
 -3.333295410053e-06    6  1  5  5
  2.875678963624e-02    6  1  6  1
  3.041195362644e-06    6  2  1  1
  1.699660161169e-05    6  2  2  1
 -2.074540200536e-06    6  2  2  2
 -1.799796564003e-05    6  2  3  1
  5.418101271998e-04    6  2  3  2
 -3.107512314603e-07    6  2  3  3
  1.297749363950e-03    6  2  4  1
  6.399901897669e-06    6  2  4  2
 -3.382246094788e-06    6  2  4  3
 -2.630297280370e-06    6  2  4  4
  9.444041877611e-07    6  2  5  1
  1.398647060712e-03    6  2  5  2
  1.085226740898e-06    6  2  5  3
 -1.436434636800e-05    6  2  5  4
  1.526941811280e-06    6  2  5  5
  1.898858803319e-07    6  2  6  1
  2.875534377333e-02    6  2  6  2
 -1.452256328901e-03    6  3  1  1
 -1.805798173846e-05    6  3  2  1
  5.686598044927e-04    6  3  2  2
  1.885056241325e-05    6  3  3  1
 -2.240100920053e-07    6  3  3  2
  1.371121773567e-03    6  3  3  3
  3.218436825914e-06    6  3  4  1
 -3.450945848307e-06    6  3  4  2
 -8.080372003611e-06    6  3  4  3
  9.681114300551e-04    6  3  4  4
  3.953389626407e-06    6  3  5  1
  1.083868059697e-06    6  3  5  2
  6.706809910036e-04    6  3  5  3
  2.719250763164e-05    6  3  5  4
 -1.312011360419e-03    6  3  5  5
  2.359158344956e-07    6  3  6  1
  3.848584792605e-09    6  3  6  2
  2.875563827438e-02    6  3  6  3
 -2.211738725364e-05    6  4  1  1
  1.297225752730e-03    6  4  2  1
  4.762624179980e-06    6  4  2  2
  3.217743363958e-06    6  4  3  1
 -3.392118563464e-06    6  4  3  2
 -9.756403703925e-06    6  4  3  3
 -1.019844618103e-05    6  4  4  1
 -2.546877580201e-06    6  4  4  2
  9.405996575481e-04    6  4  4  3
  3.985233417892e-05    6  4  4  4
 -4.251857519021e-07    6  4  5  1
 -1.428549951426e-05    6  4  5  2
  2.712035533768e-05    6  4  5  3
 -1.165314710569e-03    6  4  5  4
 -2.156567841222e-05    6  4  5  5
  5.913376746495e-09    6  4  6  1
 -2.031298251715e-07    6  4  6  2
  1.022613527958e-07    6  4  6  3
  2.875692229874e-02    6  4  6  4
 -2.072841529825e-04    6  5  1  1
  9.684182624032e-07    6  5  2  1
  1.420154003524e-03    6  5  2  2
  3.949677038711e-06    6  5  3  1
  1.084056256125e-06    6  5  3  2
  6.923097835879e-04    6  5  3  3
 -4.259788137014e-07    6  5  4  1
 -1.433169309319e-05    6  5  4  2
  2.718105639965e-05    6  5  4  3
 -1.143153664829e-03    6  5  4  4
 -5.774858798426e-06    6  5  5  1
  1.610032430585e-06    6  5  5  2
 -1.338721239607e-03    6  5  5  3
 -1.991201704745e-05    6  5  5  4
 -6.448559176787e-04    6  5  5  5
  4.366783632346e-08    6  5  6  1
  1.283736880306e-09    6  5  6  2
  1.103108131852e-06    6  5  6  3
 -1.567020967107e-07    6  5  6  4
  2.875706272860e-02    6  5  6  5
  6.811652443477e-01    6  6  1  1
  3.304058170241e-07    6  6  2  1
  6.811625647841e-01    6  6  2  2
  4.187874882230e-07    6  6  3  1
  6.520046568083e-09    6  6  3  2
  6.811632243889e-01    6  6  3  3
  1.107762634208e-08    6  6  4  1
 -3.570042618993e-07    6  6  4  2
  1.936879331739e-07    6  6  4  3
  6.811658151870e-01    6  6  4  4
  7.466157523415e-08    6  6  5  1
  2.395079939844e-09    6  6  5  2
  1.764947949764e-06    6  6  5  3
 -2.737145371253e-07    6  6  5  4
  6.811657245482e-01    6  6  5  5
  7.368768974565e-07    6  6  6  1
 -2.881435206578e-08    6  6  6  2
  1.033016309588e-05    6  6  6  3
 -4.884546830678e-07    6  6  6  4
  7.685427183213e-06    6  6  6  5
  5.702052994781e-01    6  6  6  6
 -9.214141795640e+00    1  1  0  0
 -3.910892196907e-07    2  1  0  0
 -9.214101301909e+00    2  2  0  0
 -2.621125838013e-07    3  1  0  0
 -1.610653620462e-08    3  2  0  0
 -9.214094660986e+00    3  3  0  0
  3.284611720378e-10    4  1  0  0
  3.292374298572e-07    4  2  0  0
 -1.536613518303e-08    4  3  0  0
 -9.214114967832e+00    4  4  0  0
 -7.231122187208e-08    5  1  0  0
 -7.822740133645e-09    5  2  0  0
 -5.606682623689e-07    5  3  0  0
  3.673469043861e-07    5  4  0  0
 -9.214142036344e+00    5  5  0  0
 -2.192347192744e-05    6  1  0  0
  7.826936104039e-07    6  2  0  0
 -2.513419245527e-04    6  3  0  0
  1.542622544922e-05    6  4  0  0
 -2.048381033914e-04    6  5  0  0
 -6.208563088570e+00    6  6  0  0
   -146.241479600748   0  0  0  0
