 &FCI NORB=9 ,NELEC=12 ,MS2=4,
  ORBSYM=1,1,1,1,1,1,1,1,1,
  ISYM=1,
 &END
  8.828570088036e-01    1  1  1  1
  5.109431628625e-03    2  1  2  1
  3.746307179303e-01    2  2  1  1
  6.316087741143e-01    2  2  2  2
  2.612202106390e-03    3  1  3  1
 -4.676084109072e-04    3  2  3  1
  3.087907767241e-02    3  2  3  2
  3.332877253211e-01    3  3  1  1
 -2.177187787935e-04    3  3  2  1
  5.894251064645e-01    3  3  2  2
  6.740850712217e-01    3  3  3  3
 -1.239533251615e-03    4  1  3  2
  2.612202106390e-03    4  1  4  1
 -1.239533251615e-03    4  2  3  1
  4.676084109072e-04    4  2  4  1
  3.087907767241e-02    4  2  4  2
 -5.765135251684e-04    4  3  2  1
  1.964581642433e-06    4  3  3  3
  3.102956355364e-02    4  3  4  3
  3.332877253211e-01    4  4  1  1
  2.177187787932e-04    4  4  2  1
  5.894251064645e-01    4  4  2  2
  6.120347380544e-01    4  4  3  3
 -1.964581642062e-06    4  4  4  3
  6.740850712217e-01    4  4  4  4
 -9.648146117238e-03    5  1  2  1
 -8.717137212911e-04    5  1  3  3
 -2.311270796707e-03    5  1  4  3
  8.717137212908e-04    5  1  4  4
  3.576270219737e-02    5  1  5  1
 -1.292960308092e-01    5  2  1  1
  3.060027419292e-02    5  2  2  2
  3.971744959565e-02    5  2  3  3
  3.971744959565e-02    5  2  4  4
  5.012709128091e-02    5  2  5  2
 -2.546363037833e-04    5  3  3  1
  5.427785616138e-03    5  3  3  2
 -6.742730446430e-04    5  3  4  1
 -2.312925330449e-08    5  3  4  2
  4.177320658912e-03    5  3  5  3
 -6.742730446430e-04    5  4  3  1
  2.312925331966e-08    5  4  3  2
  2.546363037833e-04    5  4  4  1
  5.427785616138e-03    5  4  4  2
  4.177320658911e-03    5  4  5  4
  7.571542937527e-01    5  5  1  1
  3.959743458587e-01    5  5  2  2
  3.495486821039e-01    5  5  3  3
  3.495486821039e-01    5  5  4  4
 -1.308036105409e-01    5  5  5  2
  7.799367441867e-01    5  5  5  5
  6.254297746250e-03    6  1  3  1
  3.612011890936e-04    6  1  3  2
 -3.555458061299e-03    6  1  4  1
 -2.290466511020e-03    6  1  4  2
 -1.983094461584e-04    6  1  5  3
  1.256050794379e-03    6  1  5  4
  3.333451396133e-02    6  1  6  1
  2.042216437255e-04    6  2  3  1
 -4.080673898186e-03    6  2  3  2
 -1.296191371386e-03    6  2  4  1
  2.319492383122e-03    6  2  4  2
 -1.339601012305e-03    6  2  5  3
  7.615723500184e-04    6  2  5  4
  1.569971104517e-03    6  2  6  1
  6.641772382895e-03    6  2  6  2
  9.760279023881e-02    6  3  1  1
 -1.407097806595e-04    6  3  2  1
 -4.194339461116e-02    6  3  2  2
 -6.841086484580e-02    6  3  3  3
  3.306622971018e-03    6  3  4  3
 -5.677676295733e-02    6  3  4  4
  5.309859753788e-04    6  3  5  1
 -3.636358866058e-02    6  3  5  2
  8.799056353883e-02    6  3  5  5
  3.875573829499e-02    6  3  6  3
 -5.548434450109e-02    6  4  1  1
  8.906726985521e-04    6  4  2  1
  2.383959546837e-02    6  4  2  2
  3.227174602869e-02    6  4  3  3
 -5.817240389581e-03    6  4  4  3
  3.888485275667e-02    6  4  4  4
 -3.367357935082e-03    6  4  5  1
  2.067096646383e-02    6  4  5  2
 -5.002058954968e-02    6  4  5  5
 -1.999964811867e-02    6  4  6  3
  1.493866409828e-02    6  4  6  4
 -2.839902553205e-04    6  5  3  1
 -3.108954327777e-03    6  5  3  2
  1.799806042226e-03    6  5  4  1
  1.767387899770e-03    6  5  4  2
  3.218777488856e-03    6  5  5  3
 -1.829747225644e-03    6  5  5  4
 -4.950665677144e-03    6  5  6  1
 -4.733225964480e-03    6  5  6  2
  2.223563300645e-02    6  5  6  5
  8.071033476030e-01    6  6  1  1
 -3.237355085283e-03    6  6  2  1
  4.051488509263e-01    6  6  2  2
  3.657942886767e-01    6  6  3  3
 -4.168470829986e-03    6  6  4  3
  3.608230062790e-01    6  6  4  4
  1.013253451623e-02    6  6  5  1
 -1.305435190515e-01    6  6  5  2
  7.782847480537e-01    6  6  5  5
  1.014094604144e-01    6  6  6  3
 -5.763087667200e-02    6  6  6  4
  8.683480788087e-01    6  6  6  6
  3.555458061299e-03    7  1  3  1
 -2.290466511021e-03    7  1  3  2
  6.254297746250e-03    7  1  4  1
 -3.612011890935e-04    7  1  4  2
  1.256050794379e-03    7  1  5  3
  1.983094461584e-04    7  1  5  4
 -1.968556210040e-03    7  1  6  2
  6.204368940928e-03    7  1  6  5
  3.333451396133e-02    7  1  7  1
 -1.296191371386e-03    7  2  3  1
 -2.319492383122e-03    7  2  3  2
 -2.042216437254e-04    7  2  4  1
 -4.080673898185e-03    7  2  4  2
 -7.615723500184e-04    7  2  5  3
 -1.339601012305e-03    7  2  5  4
 -1.968556210040e-03    7  2  6  1
  7.204365699817e-08    7  2  6  5
 -1.569971104517e-03    7  2  7  1
  6.641772382894e-03    7  2  7  2
  5.548434450109e-02    7  3  1  1
  8.906726985522e-04    7  3  2  1
 -2.383959546837e-02    7  3  2  2
 -3.888485275667e-02    7  3  3  3
 -5.817240389581e-03    7  3  4  3
 -3.227174602869e-02    7  3  4  4
 -3.367357935082e-03    7  3  5  1
 -2.067096646383e-02    7  3  5  2
  5.002058954968e-02    7  3  5  5
  2.000044721520e-02    7  3  6  3
 -7.799130587442e-03    7  3  6  4
  5.139865230155e-02    7  3  6  6
  1.493866409828e-02    7  3  7  3
  9.760279023881e-02    7  4  1  1
  1.407097806597e-04    7  4  2  1
 -4.194339461115e-02    7  4  2  2
 -5.677676295733e-02    7  4  3  3
 -3.306622971019e-03    7  4  4  3
 -6.841086484580e-02    7  4  4  4
 -5.309859753787e-04    7  4  5  1
 -3.636358866058e-02    7  4  5  2
  8.799056353882e-02    7  4  5  5
  3.161203835377e-02    7  4  6  3
 -2.000044721520e-02    7  4  6  4
  9.038262779009e-02    7  4  6  6
  1.999964811867e-02    7  4  7  3
  3.875573829498e-02    7  4  7  4
  1.799806042226e-03    7  5  3  1
 -1.767387899770e-03    7  5  3  2
  2.839902553205e-04    7  5  4  1
 -3.108954327777e-03    7  5  4  2
  1.829747225644e-03    7  5  5  3
  3.218777488856e-03    7  5  5  4
  6.204368940928e-03    7  5  6  1
 -7.204365693459e-08    7  5  6  2
  4.950665677144e-03    7  5  7  1
 -4.733225964480e-03    7  5  7  2
  2.223563300645e-02    7  5  7  5
  4.056236815322e-03    7  6  2  1
  4.170721986137e-03    7  6  3  3
  2.479154782608e-03    7  6  4  3
 -4.170721986135e-03    7  6  4  4
 -1.270148520880e-02    7  6  5  1
  3.140321886805e-03    7  6  6  3
  5.491818877754e-03    7  6  6  4
  1.265787433413e-04    7  6  6  6
  5.491818877754e-03    7  6  7  3
 -3.140321886806e-03    7  6  7  4
  3.307857933805e-02    7  6  7  6
  8.071033476030e-01    7  7  1  1
  3.237355085283e-03    7  7  2  1
  4.051488509263e-01    7  7  2  2
  3.608230062790e-01    7  7  3  3
  4.168470829986e-03    7  7  4  3
  3.657942886766e-01    7  7  4  4
 -1.013253451623e-02    7  7  5  1
 -1.305435190515e-01    7  7  5  2
  7.782847480537e-01    7  7  5  5
  9.038262779009e-02    7  7  6  3
 -5.139865230155e-02    7  7  6  4
  8.020772245105e-01    7  7  6  6
  5.763087667200e-02    7  7  7  3
  1.014094604144e-01    7  7  7  4
 -1.265787433421e-04    7  7  7  6
  8.683480788087e-01    7  7  7  7
  9.993160265107e-05    8  1  1  1
  1.650924126673e-05    8  1  2  2
  8.934820819872e-06    8  1  3  3
  8.934820819854e-06    8  1  4  4
 -2.313157517989e-05    8  1  5  2
  7.853306227754e-05    8  1  5  5
  1.310463321233e-05    8  1  6  3
 -1.219978020030e-05    8  1  6  4
  8.985764378597e-05    8  1  6  6
  1.219978020035e-05    8  1  7  3
  1.310463321233e-05    8  1  7  4
  8.985764378608e-05    8  1  7  7
  1.902967728688e-02    8  1  8  1
  9.209996105947e-07    8  2  2  1
  5.084933358894e-04    8  2  3  3
 -1.907646066560e-04    8  2  4  3
 -5.084933358901e-04    8  2  4  4
 -3.807055694399e-06    8  2  5  1
 -9.220769422621e-04    8  2  6  3
 -1.450759448711e-04    8  2  6  4
 -4.204281452927e-03    8  2  6  6
 -1.450759448708e-04    8  2  7  3
  9.220769422626e-04    8  2  7  4
 -3.351498830776e-03    8  2  7  6
  4.204281452929e-03    8  2  7  7
  5.206868963893e-03    8  2  8  2
 -4.562564162032e-07    8  3  3  1
  1.172184978100e-03    8  3  3  2
 -1.235595553368e-03    8  3  4  1
 -4.409112809258e-04    8  3  4  2
  6.011316147785e-04    8  3  5  3
 -2.257489084451e-04    8  3  5  4
  1.636969414819e-03    8  3  6  1
  1.266643496191e-03    8  3  6  2
 -1.793142631712e-03    8  3  6  5
 -2.878608765477e-03    8  3  7  1
  2.001025640743e-04    8  3  7  2
 -2.829745984166e-04    8  3  7  5
  2.556918916480e-03    8  3  8  3
  1.235595553368e-03    8  4  3  1
 -4.409112809258e-04    8  4  3  2
 -4.562564162017e-07    8  4  4  1
 -1.172184978100e-03    8  4  4  2
 -2.257489084451e-04    8  4  5  3
 -6.011316147785e-04    8  4  5  4
  2.878608765477e-03    8  4  6  1
  2.001025640742e-04    8  4  6  2
 -2.829745984166e-04    8  4  6  5
  1.636969414819e-03    8  4  7  1
 -1.266643496191e-03    8  4  7  2
  1.793142631712e-03    8  4  7  5
  2.556918916479e-03    8  4  8  4
 -3.404720291337e-06    8  5  2  1
  2.248105104389e-03    8  5  3  3
 -8.465701249852e-04    8  5  4  3
 -2.248105104389e-03    8  5  4  4
  1.095525783559e-06    8  5  5  1
  3.399955943343e-03    8  5  6  3
  5.362812056828e-04    8  5  6  4
  1.286796133426e-02    8  5  6  6
  5.362812056829e-04    8  5  7  3
 -3.399955943343e-03    8  5  7  4
  1.026554403473e-02    8  5  7  6
 -1.286796133426e-02    8  5  7  7
 -1.011349856175e-02    8  5  8  2
  3.627800919391e-02    8  5  8  5
 -1.656522390926e-03    8  6  3  1
  2.289336544087e-03    8  6  3  2
 -2.915521978008e-03    8  6  4  1
  3.613491816313e-04    8  6  4  2
 -1.275599385577e-03    8  6  5  3
 -2.009858270679e-04    8  6  5  4
  5.103705476428e-06    8  6  6  1
  1.948480402839e-03    8  6  6  2
 -6.312932053920e-03    8  6  6  5
 -1.513120509648e-02    8  6  7  1
  1.554927762698e-03    8  6  7  2
 -5.034274781890e-03    8  6  7  5
  6.357421755630e-03    8  6  8  3
 -3.613509758882e-03    8  6  8  4
  3.420421558202e-02    8  6  8  6
  2.915521978008e-03    8  7  3  1
  3.613491816313e-04    8  7  3  2
 -1.656522390926e-03    8  7  4  1
 -2.289336544087e-03    8  7  4  2
 -2.009858270679e-04    8  7  5  3
  1.275599385577e-03    8  7  5  4
  1.513120509648e-02    8  7  6  1
  1.554927762698e-03    8  7  6  2
 -5.034274781890e-03    8  7  6  5
  5.103705476376e-06    8  7  7  1
 -1.948480402839e-03    8  7  7  2
  6.312932053920e-03    8  7  7  5
  3.613509758883e-03    8  7  8  3
  6.357421755629e-03    8  7  8  4
  3.420421558202e-02    8  7  8  7
  8.575135871276e-01    8  8  1  1
  3.768303803924e-01    8  8  2  2
  3.345208331898e-01    8  8  3  3
  3.345208331898e-01    8  8  4  4
 -1.322436130712e-01    8  8  5  2
  7.673701869228e-01    8  8  5  5
  9.954077266548e-02    8  8  6  3
 -5.658596927517e-02    8  8  6  4
  8.186827132394e-01    8  8  6  6
  5.658596927517e-02    8  8  7  3
  9.954077266548e-02    8  8  7  4
  8.186827132394e-01    8  8  7  7
  1.030201380337e-04    8  8  8  1
  9.086785516777e-01    8  8  8  8
  5.346985850840e-03    9  1  2  1
 -1.420034670848e-04    9  1  3  3
 -3.758396026503e-04    9  1  4  3
  1.420034670851e-04    9  1  4  4
 -5.840880177984e-03    9  1  5  1
 -1.092699732781e-04    9  1  6  3
  6.910913448426e-04    9  1  6  4
 -2.047699601756e-03    9  1  6  6
  6.910913448426e-04    9  1  7  3
  1.092699732780e-04    9  1  7  4
  2.564726534051e-03    9  1  7  6
  2.047699601756e-03    9  1  7  7
  4.333974254894e-07    9  1  8  2
 -5.158370108445e-06    9  1  8  5
  8.081316615913e-03    9  1  9  1
  5.703187571450e-02    9  2  1  1
 -1.611234803371e-01    9  2  2  2
 -1.564350410599e-01    9  2  3  3
 -1.564350410599e-01    9  2  4  4
 -4.712363318115e-02    9  2  5  2
  4.253205774640e-02    9  2  5  5
  4.399587943559e-02    9  2  6  3
 -2.500842874307e-02    9  2  6  4
  4.423574529032e-02    9  2  6  6
  2.500842874307e-02    9  2  7  3
  4.399587943558e-02    9  2  7  4
  4.423574529032e-02    9  2  7  7
  8.552912550944e-06    9  2  8  1
  5.809617931528e-02    9  2  8  8
  1.003118571956e-01    9  2  9  2
  7.912674287615e-05    9  3  3  1
 -1.148901847304e-02    9  3  3  2
  2.099399821470e-04    9  3  4  1
  1.775701099204e-08    9  3  4  2
 -3.276845899882e-03    9  3  5  3
  2.636592744868e-08    9  3  5  4
  3.122024766161e-05    9  3  6  1
  2.385638075699e-03    9  3  6  2
 -1.846556296973e-06    9  3  6  5
 -1.973452813285e-04    9  3  7  1
  1.355925807097e-03    9  3  7  2
 -1.150601210515e-06    9  3  7  5
 -2.165608721553e-04    9  3  8  3
  8.174831128056e-05    9  3  8  4
  1.927776405770e-04    9  3  8  6
  3.060457070741e-05    9  3  8  7
  7.633466053708e-03    9  3  9  3
  2.099399821471e-04    9  4  3  1
 -1.775701101223e-08    9  4  3  2
 -7.912674287611e-05    9  4  4  1
 -1.148901847304e-02    9  4  4  2
 -2.636592743187e-08    9  4  5  3
 -3.276845899882e-03    9  4  5  4
 -1.973452813285e-04    9  4  6  1
 -1.355925807097e-03    9  4  6  2
  1.150601210519e-06    9  4  6  5
 -3.122024766159e-05    9  4  7  1
  2.385638075699e-03    9  4  7  2
 -1.846556297032e-06    9  4  7  5
  8.174831128056e-05    9  4  8  3
  2.165608721552e-04    9  4  8  4
  3.060457070739e-05    9  4  8  6
 -1.927776405769e-04    9  4  8  7
  7.633466053708e-03    9  4  9  4
 -1.109993611132e-01    9  5  1  1
 -7.783747644386e-02    9  5  2  2
 -6.524067005489e-02    9  5  3  3
 -6.524067005489e-02    9  5  4  4
  2.382760164079e-02    9  5  5  2
 -1.226691464254e-01    9  5  5  5
 -1.001346251856e-02    9  5  6  3
  5.693009548640e-03    9  5  6  4
 -1.240252892649e-01    9  5  6  6
 -5.693009548640e-03    9  5  7  3
 -1.001346251856e-02    9  5  7  4
 -1.240252892649e-01    9  5  7  7
 -2.332238453507e-05    9  5  8  1
 -1.140315316508e-01    9  5  8  8
  1.378318196474e-02    9  5  9  2
  4.291051361163e-02    9  5  9  5
  5.376872263567e-05    9  6  3  1
  3.571434612261e-03    9  6  3  2
 -3.405492966243e-04    9  6  4  1
 -2.029932254305e-03    9  6  4  2
 -5.829540950343e-04    9  6  5  3
  3.316290956562e-04    9  6  5  4
  2.483160884896e-03    9  6  6  1
  3.492355366129e-03    9  6  6  2
 -4.254388830618e-03    9  6  6  5
 -3.112728673261e-03    9  6  7  1
 -6.361596731028e-08    9  6  7  2
  9.744256177897e-08    9  6  7  5
  3.395528959748e-04    9  6  8  3
  5.370408092911e-05    9  6  8  4
  3.060931258530e-03    9  6  8  6
  2.443439151427e-03    9  6  8  7
 -6.208790015994e-04    9  6  9  3
  3.530722445912e-04    9  6  9  4
  9.594706910234e-03    9  6  9  6
 -3.405492966244e-04    9  7  3  1
  2.029932254305e-03    9  7  3  2
 -5.376872263566e-05    9  7  4  1
  3.571434612261e-03    9  7  4  2
 -3.316290956562e-04    9  7  5  3
 -5.829540950344e-04    9  7  5  4
 -3.112728673261e-03    9  7  6  1
  6.361596724196e-08    9  7  6  2
 -9.744256174778e-08    9  7  6  5
 -2.483160884896e-03    9  7  7  1
  3.492355366129e-03    9  7  7  2
 -4.254388830618e-03    9  7  7  5
  5.370408092912e-05    9  7  8  3
 -3.395528959748e-04    9  7  8  4
  2.443439151426e-03    9  7  8  6
 -3.060931258530e-03    9  7  8  7
 -3.530722445912e-04    9  7  9  3
 -6.208790015995e-04    9  7  9  4
  9.594706910234e-03    9  7  9  7
  5.624409197322e-07    9  8  2  1
  3.141098158957e-04    9  8  3  3
 -1.177402266957e-04    9  8  4  3
 -3.141098158951e-04    9  8  4  4
 -5.840527871114e-06    9  8  5  1
 -7.532863282632e-04    9  8  6  3
 -1.182463412765e-04    9  8  6  4
 -2.817999862205e-03    9  8  6  6
 -1.182463412765e-04    9  8  7  3
  7.532863282632e-04    9  8  7  4
 -2.244498884411e-03    9  8  7  6
  2.817999862205e-03    9  8  7  7
  5.427322554940e-03    9  8  8  2
 -6.650725200115e-03    9  8  8  5
 -1.021870469988e-06    9  8  9  1
  7.978177102883e-03    9  8  9  8
  3.918629024796e-01    9  9  1  1
  3.353989633797e-01    9  9  2  2
  3.099093672281e-01    9  9  3  3
  3.099093672281e-01    9  9  4  4
 -2.421160713736e-02    9  9  5  2
  3.893635908139e-01    9  9  5  5
  1.753074960614e-02    9  9  6  3
 -9.966607593354e-03    9  9  6  4
  3.986794151102e-01    9  9  6  6
  9.966607593354e-03    9  9  7  3
  1.753074960614e-02    9  9  7  4
  3.986794151102e-01    9  9  7  7
  1.734295755615e-05    9  9  8  1
  3.941104019571e-01    9  9  8  8
 -3.445488356375e-04    9  9  9  2
 -3.467094021866e-02    9  9  9  5
  3.263844195724e-01    9  9  9  9
 -6.662063714719e+00    1  1  0  0
 -5.501659851198e+00    2  2  0  0
 -5.318148029124e+00    3  3  0  0
 -5.318148029124e+00    4  4  0  0
  6.231746808516e-01    5  2  0  0
 -6.400945699537e+00    5  5  0  0
 -3.403718545469e-01    6  3  0  0
  1.935094541726e-01    6  4  0  0
 -6.698855856936e+00    6  6  0  0
 -1.935094541726e-01    7  3  0  0
 -3.403718545469e-01    7  4  0  0
 -6.698855856936e+00    7  7  0  0
 -5.031035445782e-04    8  1  0  0
 -6.723698867537e+00    8  8  0  0
  4.119574593310e-01    9  2  0  0
  8.949417320644e-01    9  5  0  0
 -4.044095096519e+00    9  9  0  0
    -99.996102877413   0  0  0  0
