#INFO: **** input file is /projects/bamu3429/BENCHMARK/fresh_atoms/MRPT/vtz/monoxides/FeO/mrpt.py ****
import json
from pyscf import gto,scf,mcscf, fci, lo, ci, cc
from pyscf.scf import ROHF, UHF,ROKS
import numpy as np
import pandas as pd

# THIS IS WERE IT STARTS ====================================

df=json.load(open("../../../trail.json"))

spins={'ScO':1, 'TiO':2, 'VO':3, 'CrO':4, 'MnO':5, 'FeO':4, 'CuO':1}

nd={'Sc':(1,0), 'Ti':(2,0), 'V':(3,0), 'Cr':(5,0), 'Mn':(5,0), 'Fe':(5,1), 'Cu':(5,4)}

cas={'Sc':3, 'Ti':4, 'V':5, 'Cr':6, 'Mn':7, 'Fe':8, 'Cu':11}

re={'ScO':1.668, 'TiO':1.623, 'VO':1.591, 'CrO':1.621, 'MnO':1.648, 'FeO':1.616, 'CuO':1.725}

datacsv={}
for nm in ['basis','charge','method','molecule','pseudopotential',
           'totalenergy','totalenergy-stocherr','totalenergy-syserr']:
  datacsv[nm]=[]

basis='vtz'
element='Fe'

mol=gto.Mole()
mol.ecp={}
mol.basis={}
for el in [element,'O']:
  mol.ecp[el]=gto.basis.parse_ecp(df[el]['ecp'])
  mol.basis[el]=gto.basis.parse(df[el][basis])
mol.charge=0
mol.spin=spins[element+'O']
mol.build(atom="%s 0. 0. 0.; O 0. 0. %g"%(element,re[element+'O']),verbose=4)

m=ROHF(mol)
m.level_shift=1000.0
dm=m.from_chk("../../../../HF/monoxides/"+element+basis+"0.chk")
hf=m.kernel(dm)
m.analyze()

from pyscf.shciscf import shci
mc = shci.SHCISCF(m, 9, 4+cas[element])
#mc.fcisolver.conv_tol = 1e-14
mc.fcisolver.mpiprefix="srun -n20"
mc.fcisolver.num_thrds=12
mc.verbose = 4
cas=mc.kernel()[0]
 
from pyscf.icmpspt import icmpspt
pt=icmpspt.icmpspt(mc,rdmM=500, PTM=1000,\
                          pttype="MRLCC",\
                          third_order=True,\
                          fully_ic=True,\
                          do_dm4=True)

datacsv['basis'].append(basis)
datacsv['charge'].append(0)
datacsv['method'].append('MRPT')
datacsv['molecule'].append(element)
datacsv['pseudopotential'].append('trail')
datacsv['totalenergy'].append(cas+pt)
datacsv['totalenergy-stocherr'].append(0.0)
datacsv['totalenergy-syserr'].append(0.0)
pd.DataFrame(datacsv).to_csv(element+".csv",index=False)

#INFO: ******************** input file end ********************


System: ('Linux', 'bnode0302.rc.int.colorado.edu', '3.10.0-514.41.1.el7.x86_64', '#1 SMP Wed Jan 17 10:26:16 EST 2018', 'x86_64', 'x86_64')  Threads 28
Python 2.7.11 (default, Mar 22 2016, 01:42:54) 
[GCC Intel(R) C++ gcc 4.8 mode]
numpy 1.11.1  scipy 0.17.1
Date: Wed Apr 18 18:14:31 2018
PySCF version 1.4.6
PySCF path  /projects/bamu3429/softwares/pyscf_uptodate/pyscf
GIT ORIG_HEAD f3591ef22170896a4cdc2aadaa6f5da388ffcadb
GIT HEAD      ref: refs/heads/master
GIT master branch  1847583fb1d2472321833d3c71c8b7008e5fabf5

[INPUT] VERBOSE 4
[INPUT] num atoms = 2
[INPUT] num electrons = 22
[INPUT] charge = 0
[INPUT] spin (= nelec alpha-beta = 2S) = 4
[INPUT] symmetry False subgroup None
[INPUT]  1 Fe     0.000000000000   0.000000000000   0.000000000000 AA    0.000000000000   0.000000000000   0.000000000000 Bohr
[INPUT]  2 O      0.000000000000   0.000000000000   1.616000000000 AA    0.000000000000   0.000000000000   3.053797417297 Bohr
[INPUT] ---------------- BASIS SET ---------------- 
[INPUT] l, kappa, [nprim/nctr], expnt,             c_1 c_2 ...
[INPUT] Fe
[INPUT] 0    0    [12   /1   ]  41.79315189       0.013363
                                21.4479766        -0.225831
                                13.50597996       1.092302
                                9.47978339        -1.379238
                                4.48116767        0.183004
                                2.00533715        0.377557
                                1.21557711        0.591529
                                0.52042955        0.236703
                                0.24120153        -0.029854
                                0.11142434        0.02048
                                0.05213724        -0.006828
                                0.02419858        0.002604
[INPUT] 0    0    [12   /1   ]  41.79315189       -0.002034
                                21.4479766        0.04181
                                13.50597996       -0.22265
                                9.47978339        0.296462
                                4.48116767        -0.039261
                                2.00533715        -0.090727
                                1.21557711        -0.230375
                                0.52042955        -0.197211
                                0.24120153        0.111234
                                0.11142434        0.439139
                                0.05213724        0.516418
                                0.02419858        0.126845
[INPUT] 0    0    [12   /1   ]  41.79315189       -0.004624
                                21.4479766        0.139122
                                13.50597996       -0.88629
                                9.47978339        1.342491
                                4.48116767        -0.386645
                                2.00533715        -1.289136
                                1.21557711        0.203208
                                0.52042955        0.587093
                                0.24120153        0.75499
                                0.11142434        0.148125
                                0.05213724        -0.57141
                                0.02419858        -0.318371
[INPUT] 0    0    [12   /1   ]  41.79315189       -0.003085
                                21.4479766        0.157954
                                13.50597996       -1.176019
                                9.47978339        1.974187
                                4.48116767        -0.963904
                                2.00533715        -2.385892
                                1.21557711        2.080105
                                0.52042955        1.415026
                                0.24120153        -1.191846
                                0.11142434        -1.007091
                                0.05213724        0.554221
                                0.02419858        0.59334
[INPUT] 0    0    [1    /1   ]  0.02419858           1
[INPUT] 0    0    [1    /1   ]  0.01123134           1
[INPUT] 1    0    [12   /1   ]  66.19105244       0.00032
                                34.58074578       -0.003142
                                17.77781378       0.029707
                                9.38371315        -0.152873
                                5.85185491        0.094627
                                3.39352009        0.227547
                                1.80084269        0.448024
                                0.88349057        0.318306
                                0.45376195        0.097682
                                0.18864625        0.012314
                                0.07756623        -0.001004
                                0.03189313        0.000474
[INPUT] 1    0    [12   /1   ]  66.19105244       -1.8e-05
                                34.58074578       0.000416
                                17.77781378       -0.005911
                                9.38371315        0.03555
                                5.85185491        -0.025962
                                3.39352009        -0.059781
                                1.80084269        -0.122371
                                0.88349057        -0.102075
                                0.45376195        0.039881
                                0.18864625        0.346137
                                0.07756623        0.528115
                                0.03189313        0.237416
[INPUT] 1    0    [12   /1   ]  66.19105244       -0.000861
                                34.58074578       0.002748
                                17.77781378       0.01593
                                9.38371315        -0.209763
                                5.85185491        0.179034
                                3.39352009        0.814145
                                1.80084269        0.03855
                                0.88349057        -0.875838
                                0.45376195        -0.34746
                                0.18864625        0.631788
                                0.07756623        0.399045
                                0.03189313        0.003561
[INPUT] 1    0    [12   /1   ]  66.19105244       -0.001607
                                34.58074578       0.006226
                                17.77781378       0.025483
                                9.38371315        -0.54041
                                5.85185491        1.16772
                                3.39352009        0.772818
                                1.80084269        -1.572667
                                0.88349057        -0.61263
                                0.45376195        1.561245
                                0.18864625        -0.107594
                                0.07756623        -0.646326
                                0.03189313        0.002096
[INPUT] 1    0    [1    /1   ]  0.03189313           1
[INPUT] 1    0    [1    /1   ]  0.01311358           1
[INPUT] 2    0    [10   /1   ]  58.21685909       0.000311
                                24.96806153       -0.010386
                                12.44413704       0.126915
                                5.48395408        0.166806
                                2.79137309        0.262721
                                1.34407118        0.316542
                                0.61230651        0.280074
                                0.27095461        0.158069
                                0.12811374        0.049028
                                0.05904405        0.008369
[INPUT] 2    0    [10   /1   ]  58.21685909       0.000374
                                24.96806153       0.007401
                                12.44413704       -0.12958
                                5.48395408        -0.233171
                                2.79137309        -0.387571
                                1.34407118        -0.056586
                                0.61230651        0.33938
                                0.27095461        0.403227
                                0.12811374        0.20401
                                0.05904405        0.046291
[INPUT] 2    0    [10   /1   ]  58.21685909       -0.001716
                                24.96806153       -0.000551
                                12.44413704       0.130748
                                5.48395408        0.429828
                                2.79137309        0.259447
                                1.34407118        -0.684658
                                0.61230651        -0.396877
                                0.27095461        0.349872
                                0.12811374        0.4289
                                0.05904405        0.113763
[INPUT] 2    0    [1    /1   ]  0.05904405           1
[INPUT] 2    0    [1    /1   ]  0.02721175           1
[INPUT] 3    0    [1    /1   ]  3.759443             1
[INPUT] 3    0    [1    /1   ]  1.028316             1
[INPUT] 3    0    [1    /1   ]  0.28127405           1
[INPUT] 4    0    [1    /1   ]  3.347806             1
[INPUT] 4    0    [1    /1   ]  0.91572139           1
[INPUT] O
[INPUT] 0    0    [10   /1   ]  57.663349         -0.002794
                                35.726816         0.023976
                                22.453757         -0.115974
                                14.732301         0.288033
                                9.739917          -0.274786
                                5.042008          -0.083789
                                2.157818          0.063778
                                1.002916          0.410182
                                0.421839          0.504044
                                0.173041          0.172152
[INPUT] 0    0    [1    /1   ]  1.849096             1
[INPUT] 0    0    [1    /1   ]  0.255434             1
[INPUT] 0    0    [1    /1   ]  0.141483             1
[INPUT] 1    0    [10   /1   ]  52.47406          -0.000522
                                32.138432         0.004857
                                19.458579         -0.027749
                                11.839344         0.074258
                                7.91003           0.014369
                                3.670858          0.153479
                                1.53966           0.283685
                                0.647119          0.358201
                                0.267853          0.29559
                                0.107198          0.104889
[INPUT] 1    0    [1    /1   ]  0.622175             1
[INPUT] 1    0    [1    /1   ]  0.193391             1
[INPUT] 1    0    [1    /1   ]  0.052779             1
[INPUT] 2    0    [1    /1   ]  2.324251             1
[INPUT] 2    0    [1    /1   ]  0.656935             1
[INPUT] 2    0    [1    /1   ]  0.2072               1
[INPUT] 3    0    [1    /1   ]  1.423472             1
[INPUT] 3    0    [1    /1   ]  0.48761              1
nuclear repulsion = 31.4362699556436
number of shells = 35
number of NR pGTOs = 480
number of NR cGTOs = 133
basis = {'Fe': [[0, [41.79315189, 0.013363], [21.4479766, -0.225831], [13.50597996, 1.092302], [9.47978339, -1.379238], [4.48116767, 0.183004], [2.00533715, 0.377557], [1.21557711, 0.591529], [0.52042955, 0.236703], [0.24120153, -0.029854], [0.11142434, 0.02048], [0.05213724, -0.006828], [0.02419858, 0.002604]], [0, [41.79315189, -0.002034], [21.4479766, 0.04181], [13.50597996, -0.22265], [9.47978339, 0.296462], [4.48116767, -0.039261], [2.00533715, -0.090727], [1.21557711, -0.230375], [0.52042955, -0.197211], [0.24120153, 0.111234], [0.11142434, 0.439139], [0.05213724, 0.516418], [0.02419858, 0.126845]], [0, [41.79315189, -0.004624], [21.4479766, 0.139122], [13.50597996, -0.88629], [9.47978339, 1.342491], [4.48116767, -0.386645], [2.00533715, -1.289136], [1.21557711, 0.203208], [0.52042955, 0.587093], [0.24120153, 0.75499], [0.11142434, 0.148125], [0.05213724, -0.57141], [0.02419858, -0.318371]], [0, [41.79315189, -0.003085], [21.4479766, 0.157954], [13.50597996, -1.176019], [9.47978339, 1.974187], [4.48116767, -0.963904], [2.00533715, -2.385892], [1.21557711, 2.080105], [0.52042955, 1.415026], [0.24120153, -1.191846], [0.11142434, -1.007091], [0.05213724, 0.554221], [0.02419858, 0.59334]], [0, [0.02419858, 1.0]], [0, [0.01123134, 1.0]], [1, [66.19105244, 0.00032], [34.58074578, -0.003142], [17.77781378, 0.029707], [9.38371315, -0.152873], [5.85185491, 0.094627], [3.39352009, 0.227547], [1.80084269, 0.448024], [0.88349057, 0.318306], [0.45376195, 0.097682], [0.18864625, 0.012314], [0.07756623, -0.001004], [0.03189313, 0.000474]], [1, [66.19105244, -1.8e-05], [34.58074578, 0.000416], [17.77781378, -0.005911], [9.38371315, 0.03555], [5.85185491, -0.025962], [3.39352009, -0.059781], [1.80084269, -0.122371], [0.88349057, -0.102075], [0.45376195, 0.039881], [0.18864625, 0.346137], [0.07756623, 0.528115], [0.03189313, 0.237416]], [1, [66.19105244, -0.000861], [34.58074578, 0.002748], [17.77781378, 0.01593], [9.38371315, -0.209763], [5.85185491, 0.179034], [3.39352009, 0.814145], [1.80084269, 0.03855], [0.88349057, -0.875838], [0.45376195, -0.34746], [0.18864625, 0.631788], [0.07756623, 0.399045], [0.03189313, 0.003561]], [1, [66.19105244, -0.001607], [34.58074578, 0.006226], [17.77781378, 0.025483], [9.38371315, -0.54041], [5.85185491, 1.16772], [3.39352009, 0.772818], [1.80084269, -1.572667], [0.88349057, -0.61263], [0.45376195, 1.561245], [0.18864625, -0.107594], [0.07756623, -0.646326], [0.03189313, 0.002096]], [1, [0.03189313, 1.0]], [1, [0.01311358, 1.0]], [2, [58.21685909, 0.000311], [24.96806153, -0.010386], [12.44413704, 0.126915], [5.48395408, 0.166806], [2.79137309, 0.262721], [1.34407118, 0.316542], [0.61230651, 0.280074], [0.27095461, 0.158069], [0.12811374, 0.049028], [0.05904405, 0.008369]], [2, [58.21685909, 0.000374], [24.96806153, 0.007401], [12.44413704, -0.12958], [5.48395408, -0.233171], [2.79137309, -0.387571], [1.34407118, -0.056586], [0.61230651, 0.33938], [0.27095461, 0.403227], [0.12811374, 0.20401], [0.05904405, 0.046291]], [2, [58.21685909, -0.001716], [24.96806153, -0.000551], [12.44413704, 0.130748], [5.48395408, 0.429828], [2.79137309, 0.259447], [1.34407118, -0.684658], [0.61230651, -0.396877], [0.27095461, 0.349872], [0.12811374, 0.4289], [0.05904405, 0.113763]], [2, [0.05904405, 1.0]], [2, [0.02721175, 1.0]], [3, [3.759443, 1.0]], [3, [1.028316, 1.0]], [3, [0.28127405, 1.0]], [4, [3.347806, 1.0]], [4, [0.91572139, 1.0]]], 'O': [[0, [57.663349, -0.002794], [35.726816, 0.023976], [22.453757, -0.115974], [14.732301, 0.288033], [9.739917, -0.274786], [5.042008, -0.083789], [2.157818, 0.063778], [1.002916, 0.410182], [0.421839, 0.504044], [0.173041, 0.172152]], [0, [1.849096, 1.0]], [0, [0.255434, 1.0]], [0, [0.141483, 1.0]], [1, [52.47406, -0.000522], [32.138432, 0.004857], [19.458579, -0.027749], [11.839344, 0.074258], [7.91003, 0.014369], [3.670858, 0.153479], [1.53966, 0.283685], [0.647119, 0.358201], [0.267853, 0.29559], [0.107198, 0.104889]], [1, [0.622175, 1.0]], [1, [0.193391, 1.0]], [1, [0.052779, 1.0]], [2, [2.324251, 1.0]], [2, [0.656935, 1.0]], [2, [0.2072, 1.0]], [3, [1.423472, 1.0]], [3, [0.48761, 1.0]]]}
ecp = {'Fe': [10, [[-1, [[], [[16.90683491, 16.0]], [[18.40258134, 26847.81569895], [6.30300831, -133.54888707], [18.42848726, -26765.4049232], [18.43432023, 1.00742417]], [[7.01300654, 270.50935856]]]], [0, [[], [], [[9.62463353, 20308.8999348], [9.1270955, -17595.21707731], [7.5416384, 1884.69012383], [12.70900949, -4483.50209856], [8.14863339, -1094.38597968], [16.27611739, 1032.95376659]], []]], [1, [[], [], [[11.36514719, -905.00711112], [14.56762424, 34640.9358259], [15.05861359, -42299.94223895], [17.41337089, 10633.68808757], [18.3746752, -5844.19723669], [17.04734437, 3803.80414779]], []]], [2, [[], [], [[10.13935738, -11031.18647055], [13.45796076, 16711.37502047], [10.97387824, 37989.95033676], [11.92919033, -41782.92514683], [17.7123012, 3812.58339812], [17.32108913, -5718.00854971]], []]]]], 'O': [2, [[-1, [[], [[10.27717748, 6.0]], [[15.99566749, 1232.50197768], [10.46901775, -696.47008301], [14.6384801, -2654.22657081], [12.57591181, 2101.67732548]], [[7.77739102, 61.66306486]]]], [0, [[], [], [[12.39426073, -656683.37638839], [12.38126171, 657858.57667068], [8.57671033, 511.50098405], [9.89256508, -2579.54665641], [28.05641604, -57.68129584], [17.24753607, 970.30940152]], []]], [1, [[], [], [[14.78918914, -363027.24258186], [14.82014018, 361852.52314043], [22.89622221, -1300.20069256], [8.51331893, -181.96869573], [11.48609758, 2194.87589959], [27.22017524, 451.19906206]], []]]]]}
CPU time:         3.77


******** <class 'pyscf.scf.rohf.ROHF'> flags ********
method = ROHF
initial guess = minao
damping factor = 0
level shift factor = 1000.0
DIIS = <class 'pyscf.scf.diis.CDIIS'>
DIIS start cycle = 1
DIIS space = 8
SCF tol = 1e-09
SCF gradient tol = None
max. SCF cycles = 50
direct_scf = True
direct_scf_tol = 1e-13
chkfile to save SCF result = /rc_scratch/bamu3429/tmpxALJCZ
max_memory 4000 MB (current use 175 MB)
num. doubly occ = 9  num. singly occ = 4
Set gradient conv threshold to 3.16228e-05
init E= -138.667246980299
  HOMO = 499.857900054793  LUMO = 999.964683440814
cycle= 1 E= -138.6672469803  delta_E= -3.98e-13  |g|= 1.57e-05  |ddm|= 6.62e-08
  HOMO = -0.142099942682454  LUMO = -0.0353165591405277
Extra cycle  E= -138.667246980422  delta_E= -1.22e-10  |g|= 5.91e-06  |ddm|= 4.19e-05
converged SCF energy = -138.667246980422
**** MO energy ****
                Roothaan           | alpha              | beta
MO #1   energy= -4.40389309712334  | -4.57710445609596  | -4.23068187473319  occ= 2
MO #2   energy= -2.79433150827151  | -3.04323570365934  | -2.54542736445095  occ= 2
MO #3   energy= -2.78579747340167  | -2.97366480667884  | -2.59793014405562  occ= 2
MO #4   energy= -2.78579747340166  | -2.97366480667884  | -2.59793014405562  occ= 2
MO #5   energy= -1.11726346053151  | -1.13119177218651  | -1.1033352398595   occ= 2
MO #6   energy= -0.539896637356793 | -0.600159901763595 | -0.479633372949987 occ= 2
MO #7   energy= -0.413834531861567 | -0.444163092826379 | -0.383507415826016 occ= 2
MO #8   energy= -0.388185091011455 | -0.41497292349561  | -0.36139766252378  occ= 2
MO #9   energy= -0.388185091011455 | -0.414972923495608 | -0.361397662523782 occ= 2
MO #10  energy= -0.149985004923407 | -0.567183921923218 | 0.267212456780846  occ= 1
MO #11  energy= -0.144074865978158 | -0.622013055492297 | 0.33386481415871   occ= 1
MO #12  energy= -0.144074865978152 | -0.622013055492294 | 0.333864814158717  occ= 1
MO #13  energy= -0.142099942682454 | -0.648445122070193 | 0.364244774943787  occ= 1
MO #14  energy= -0.0353165591405277 | -0.0457203224524045 | -0.0249129545980214 occ= 0
MO #15  energy= 0.0182602970234486 | 0.0170224803752086 | 0.0194980732180894 occ= 0
MO #16  energy= 0.0182602970234506 | 0.0170224803752089 | 0.0194980732180904 occ= 0
MO #17  energy= 0.0183296147259613 | 0.0148741746018446 | 0.0217851235702029 occ= 0
MO #18  energy= 0.0380823323591863 | 0.0375733603856786 | 0.038591373838378  occ= 0
MO #19  energy= 0.0708413503292665 | 0.0673702478466432 | 0.0743123694636461 occ= 0
MO #20  energy= 0.0708413503292668 | 0.0673702478466437 | 0.0743123694636464 occ= 0
MO #21  energy= 0.0789607803019693 | 0.0787942000521836 | 0.0791273605517525 occ= 0
MO #22  energy= 0.0790157992983719 | 0.0786746097648218 | 0.0793569970090587 occ= 0
MO #23  energy= 0.080655653985242  | 0.0796022278633123 | 0.0817091433366506 occ= 0
MO #24  energy= 0.0935679892563783 | 0.0908352897067968 | 0.0963006000859314 occ= 0
MO #25  energy= 0.0935679892563838 | 0.0908352897068021 | 0.0963006000859361 occ= 0
MO #26  energy= 0.1399655728218    | 0.130137535055557  | 0.149793384286646  occ= 0
MO #27  energy= 0.150195220266503  | 0.146529063419847  | 0.153861758568454  occ= 0
MO #28  energy= 0.218927773577552  | 0.212725871076003  | 0.225129461548789  occ= 0
MO #29  energy= 0.218927773577561  | 0.212725871076008  | 0.225129461548799  occ= 0
MO #30  energy= 0.240618720719326  | 0.237774144274765  | 0.243463297163889  occ= 0
MO #31  energy= 0.24215629024103   | 0.238051953874203  | 0.246260962752606  occ= 0
MO #32  energy= 0.242851929219056  | 0.236187289337855  | 0.249516772722172  occ= 0
MO #33  energy= 0.293844822026719  | 0.290224622103707  | 0.29746499844463   occ= 0
MO #34  energy= 0.293844822026723  | 0.290224622103711  | 0.297464998444632  occ= 0
MO #35  energy= 0.293991517213125  | 0.288690675005053  | 0.299292774395546  occ= 0
MO #36  energy= 0.305306636767431  | 0.291320769565072  | 0.319292467110656  occ= 0
MO #37  energy= 0.305306636767452  | 0.291320769565094  | 0.319292467110679  occ= 0
MO #38  energy= 0.509387034365414  | 0.495904215587011  | 0.522870543012116  occ= 0
MO #39  energy= 0.754709335326264  | 0.751894700169453  | 0.757523970483082  occ= 0
MO #40  energy= 0.755553861523842  | 0.751004455719235  | 0.760103266162886  occ= 0
MO #41  energy= 0.772961316134255  | 0.748857606875227  | 0.797065024158569  occ= 0
MO #42  energy= 0.827741123863801  | 0.812879888644215  | 0.842602881186551  occ= 0
MO #43  energy= 0.83837238201579   | 0.814597122219899  | 0.862147484405279  occ= 0
MO #44  energy= 0.8383723820158    | 0.814597122219906  | 0.862147484405284  occ= 0
MO #45  energy= 0.926621651035517  | 0.915605678791487  | 0.937637714238206  occ= 0
MO #46  energy= 0.987516959040437  | 0.979050940433474  | 0.995982924885681  occ= 0
MO #47  energy= 0.987516959040451  | 0.979050940433483  | 0.995982924885701  occ= 0
MO #48  energy= 1.01013622181678   | 0.996292990726681  | 1.02397945301092   occ= 0
MO #49  energy= 1.01013622181678   | 0.996292990726683  | 1.02397945301092   occ= 0
MO #50  energy= 1.03324600048511   | 1.014349641681     | 1.05214235928922   occ= 0
MO #51  energy= 1.04682856129969   | 1.00458292559436   | 1.0890743616878    occ= 0
MO #52  energy= 1.04972024768093   | 1.03015005638152   | 1.06929076682029   occ= 0
MO #53  energy= 1.12521368418187   | 1.11476922782092   | 1.13565815839297   occ= 0
MO #54  energy= 1.12521368418188   | 1.11476922782092   | 1.13565815839297   occ= 0
MO #55  energy= 1.24059970979482   | 1.22829695756288   | 1.25290246202676   occ= 0
MO #56  energy= 1.25118464728543   | 1.21646731846897   | 1.28590207636291   occ= 0
MO #57  energy= 1.84004448144941   | 1.79473073588087   | 1.88535787172516   occ= 0
MO #58  energy= 1.84004448144946   | 1.79473073588092   | 1.88535787172521   occ= 0
MO #59  energy= 1.8922848224987    | 1.85863879630707   | 1.92593085552206   occ= 0
MO #60  energy= 1.8922848224987    | 1.85863879630707   | 1.92593085552206   occ= 0
MO #61  energy= 1.95357630300037   | 1.93415074695875   | 1.97300212676026   occ= 0
MO #62  energy= 2.01475997951076   | 1.98900480790851   | 2.04051514840489   occ= 0
MO #63  energy= 2.15980566498044   | 2.15787806442953   | 2.16173326553045   occ= 0
MO #64  energy= 2.15980566498044   | 2.15787806442953   | 2.16173326553045   occ= 0
MO #65  energy= 2.28335782608261   | 2.27060103795443   | 2.29611472536656   occ= 0
MO #66  energy= 2.28502848842581   | 2.28059927144915   | 2.28945770638776   occ= 0
MO #67  energy= 2.28530862025063   | 2.28151077060998   | 2.28910646989128   occ= 0
MO #68  energy= 2.43094889635133   | 2.42579466413985   | 2.43610313155147   occ= 0
MO #69  energy= 2.43094889635134   | 2.42579466413985   | 2.43610313155148   occ= 0
MO #70  energy= 2.44024534436696   | 2.43603239255885   | 2.44445829618729   occ= 0
MO #71  energy= 2.44052458674219   | 2.437317527847     | 2.44373164563739   occ= 0
MO #72  energy= 2.70600221244606   | 2.68330733203284   | 2.72869719122542   occ= 0
MO #73  energy= 2.97865094668982   | 2.94410266407827   | 3.01319923818537   occ= 0
MO #74  energy= 2.97865094668988   | 2.94410266407833   | 3.01319923818543   occ= 0
MO #75  energy= 3.08258438619276   | 3.04622136737364   | 3.11894748789231   occ= 0
MO #76  energy= 3.47032880801489   | 3.40938055393039   | 3.53127706215352   occ= 0
MO #77  energy= 3.47032880801489   | 3.4093805539304    | 3.53127706215353   occ= 0
MO #78  energy= 3.50674958581824   | 3.44247981798907   | 3.57101935364742   occ= 0
MO #79  energy= 3.5132542931479    | 3.44842393662557   | 3.57808465493428   occ= 0
MO #80  energy= 3.51602272104161   | 3.42309281634214   | 3.60895262755057   occ= 0
MO #81  energy= 3.6939999834586    | 3.63471580344695   | 3.75328416760592   occ= 0
MO #82  energy= 3.69399998345863   | 3.63471580344697   | 3.75328416760594   occ= 0
MO #83  energy= 3.8407237989816    | 3.82589865740967   | 3.8555489365554    occ= 0
MO #84  energy= 3.84072379898161   | 3.82589865740969   | 3.85554893655542   occ= 0
MO #85  energy= 4.17311107337501   | 4.14761272852457   | 4.19860941856634   occ= 0
MO #86  energy= 4.17314075074255   | 4.14764290336073   | 4.19863859812437   occ= 0
MO #87  energy= 4.2045200896314    | 4.17667861898438   | 4.23236155918161   occ= 0
MO #88  energy= 4.2045200896314    | 4.17667861898438   | 4.23236155918161   occ= 0
MO #89  energy= 4.34232835995915   | 4.31727433114747   | 4.36738240330827   occ= 0
MO #90  energy= 4.43518299775413   | 4.39954947252552   | 4.47081651674284   occ= 0
MO #91  energy= 4.43569828632097   | 4.41035795672983   | 4.46103861591209   occ= 0
MO #92  energy= 4.72048171348704   | 4.68965362984042   | 4.75130977427051   occ= 0
MO #93  energy= 4.72048171348705   | 4.68965362984043   | 4.75130977427052   occ= 0
MO #94  energy= 4.72862320630189   | 4.69937109815261   | 4.75787531445118   occ= 0
MO #95  energy= 4.75543846440821   | 4.66169418733049   | 4.84918272887892   occ= 0
MO #96  energy= 4.83852450252746   | 4.78972710835228   | 4.88732189876798   occ= 0
MO #97  energy= 5.11927111206836   | 5.09908142308568   | 5.13946079933197   occ= 0
MO #98  energy= 5.55768044245663   | 5.48033233485234   | 5.6350285041263    occ= 0
MO #99  energy= 5.55768044245669   | 5.48033233485239   | 5.63502850412634   occ= 0
MO #100 energy= 6.16883960061179   | 6.10287307428124   | 6.2348061419793    occ= 0
MO #101 energy= 6.58422962642932   | 6.5814798224807    | 6.58697943037674   occ= 0
MO #102 energy= 6.58422962642932   | 6.5814798224807    | 6.58697943037673   occ= 0
MO #103 energy= 6.68566535000216   | 6.6833020395504    | 6.68802866043248   occ= 0
MO #104 energy= 6.68580116167258   | 6.6835765279691    | 6.68802579537609   occ= 0
MO #105 energy= 6.86971866868819   | 6.86421929817342   | 6.87521803917218   occ= 0
MO #106 energy= 6.8697186686882    | 6.86421929817342   | 6.87521803917219   occ= 0
MO #107 energy= 6.94860468096071   | 6.93678691580182   | 6.96042244603874   occ= 0
MO #108 energy= 7.16932360415011   | 7.16465345121459   | 7.17399375708814   occ= 0
MO #109 energy= 7.16940821689526   | 7.16480119124458   | 7.17401524254597   occ= 0
MO #110 energy= 7.3623367217243    | 7.35525277868352   | 7.36942066411914   occ= 0
MO #111 energy= 7.3623367217243    | 7.35525277868351   | 7.36942066411913   occ= 0
MO #112 energy= 7.73472186905873   | 7.71954993534233   | 7.74989380268294   occ= 0
MO #113 energy= 8.8788727510048    | 8.82560287354215   | 8.93214262804758   occ= 0
MO #114 energy= 8.87887275100481   | 8.82560287354218   | 8.93214262804761   occ= 0
MO #115 energy= 9.78221538309798   | 9.7099082148013    | 9.85452255033494   occ= 0
MO #116 energy= 11.1085864449711   | 11.0302905589628   | 11.1868823314621   occ= 0
MO #117 energy= 11.1085864449711   | 11.0302905589628   | 11.1868823314621   occ= 0
MO #118 energy= 11.1156509657575   | 11.0238763415214   | 11.2074255899935   occ= 0
MO #119 energy= 11.1214436381379   | 10.9914396674369   | 11.2514476094395   occ= 0
MO #120 energy= 11.2435058188373   | 11.1305523770997   | 11.3564592620268   occ= 0
MO #121 energy= 11.2435058188373   | 11.1305523770997   | 11.3564592620268   occ= 0
MO #122 energy= 11.6063642535858   | 11.5092678122051   | 11.7034606951928   occ= 0
MO #123 energy= 13.1986215948503   | 13.1871869315723   | 13.2100562582764   occ= 0
MO #124 energy= 14.6828672938376   | 14.6150413845176   | 14.7506932025828   occ= 0
MO #125 energy= 14.6828672938376   | 14.6150413845176   | 14.7506932025828   occ= 0
MO #126 energy= 14.6922124965501   | 14.6399122414375   | 14.7445127582224   occ= 0
MO #127 energy= 14.6922760256099   | 14.640113508178    | 14.7444385430419   occ= 0
MO #128 energy= 14.7419834386276   | 14.6602954474713   | 14.8236714314261   occ= 0
MO #129 energy= 14.7513607173701   | 14.6879684711235   | 14.8147529636166   occ= 0
MO #130 energy= 14.8943826204746   | 14.8218738918869   | 14.9668913520277   occ= 0
MO #131 energy= 14.8943826204746   | 14.8218738918868   | 14.9668913520277   occ= 0
MO #132 energy= 15.0056655459154   | 14.9426565004875   | 15.0686745932873   occ= 0
MO #133 energy= 15.3319690099504   | 15.3028914792944   | 15.3610465408853   occ= 0
 ** Mulliken pop on meta-lowdin orthogonal AOs  **
 ** Mulliken pop  **
pop of  0Fe 3s        1.99993
pop of  0Fe 4s        0.37258
pop of  0Fe 5s        0.01087
pop of  0Fe 6s        0.00180
pop of  0Fe 7s        0.00328
pop of  0Fe 8s        0.00109
pop of  0Fe 3px       1.99958
pop of  0Fe 3py       1.99958
pop of  0Fe 3pz       1.99869
pop of  0Fe 4px       0.03705
pop of  0Fe 4py       0.03705
pop of  0Fe 4pz       0.00308
pop of  0Fe 5px       0.00282
pop of  0Fe 5py       0.00282
pop of  0Fe 5pz       0.00122
pop of  0Fe 6px       0.00009
pop of  0Fe 6py       0.00009
pop of  0Fe 6pz       0.00039
pop of  0Fe 7px       0.00410
pop of  0Fe 7py       0.00410
pop of  0Fe 7pz       0.00242
pop of  0Fe 8px       0.00049
pop of  0Fe 8py       0.00049
pop of  0Fe 8pz       0.00026
pop of  0Fe 3dxy      1.99918
pop of  0Fe 3dyz      1.06816
pop of  0Fe 3dz^2     1.07704
pop of  0Fe 3dxz      1.06816
pop of  0Fe 3dx2-y2    0.99882
pop of  0Fe 4dxy      0.00011
pop of  0Fe 4dyz      0.00232
pop of  0Fe 4dz^2     0.00007
pop of  0Fe 4dxz      0.00232
pop of  0Fe 4dx2-y2    0.00051
pop of  0Fe 5dxy      0.00001
pop of  0Fe 5dyz      0.00017
pop of  0Fe 5dz^2     0.00083
pop of  0Fe 5dxz      0.00017
pop of  0Fe 5dx2-y2    0.00007
pop of  0Fe 6dxy      0.00000
pop of  0Fe 6dyz      0.00146
pop of  0Fe 6dz^2     0.00071
pop of  0Fe 6dxz      0.00146
pop of  0Fe 6dx2-y2    0.00020
pop of  0Fe 7dxy      0.00000
pop of  0Fe 7dyz      0.00017
pop of  0Fe 7dz^2     0.00040
pop of  0Fe 7dxz      0.00017
pop of  0Fe 7dx2-y2    0.00001
pop of  0Fe 4fy^3     0.00002
pop of  0Fe 4fxyz     0.00001
pop of  0Fe 4fyz^2    0.00002
pop of  0Fe 4fz^3     0.00004
pop of  0Fe 4fxz^2    0.00002
pop of  0Fe 4fzx^2    0.00000
pop of  0Fe 4fx^3     0.00002
pop of  0Fe 5fy^3     0.00004
pop of  0Fe 5fxyz     0.00019
pop of  0Fe 5fyz^2    0.00035
pop of  0Fe 5fz^3     0.00033
pop of  0Fe 5fxz^2    0.00035
pop of  0Fe 5fzx^2    0.00010
pop of  0Fe 5fx^3     0.00004
pop of  0Fe 6fy^3     0.00001
pop of  0Fe 6fxyz     0.00046
pop of  0Fe 6fyz^2    0.00013
pop of  0Fe 6fz^3     0.00003
pop of  0Fe 6fxz^2    0.00013
pop of  0Fe 6fzx^2    0.00017
pop of  0Fe 6fx^3     0.00001
pop of  0Fe 5g-4      0.00000
pop of  0Fe 5g-3      0.00000
pop of  0Fe 5g-2      0.00000
pop of  0Fe 5g-1      0.00001
pop of  0Fe 5g 0      0.00001
pop of  0Fe 5g 1      0.00001
pop of  0Fe 5g 2      0.00000
pop of  0Fe 5g 3      0.00000
pop of  0Fe 5g 4      0.00000
pop of  0Fe 6g-4      0.00000
pop of  0Fe 6g-3      0.00000
pop of  0Fe 6g-2      0.00000
pop of  0Fe 6g-1      0.00006
pop of  0Fe 6g 0      0.00015
pop of  0Fe 6g 1      0.00006
pop of  0Fe 6g 2      0.00000
pop of  0Fe 6g 3      0.00000
pop of  0Fe 6g 4      0.00001
pop of  1O 2s        1.89949
pop of  1O 3s        0.00059
pop of  1O 4s        0.00091
pop of  1O 5s        0.00311
pop of  1O 2px       1.84146
pop of  1O 2py       1.84146
pop of  1O 2pz       1.60763
pop of  1O 3px       0.00003
pop of  1O 3py       0.00003
pop of  1O 3pz       0.00027
pop of  1O 4px       0.01511
pop of  1O 4py       0.01511
pop of  1O 4pz       0.00524
pop of  1O 5px       0.01142
pop of  1O 5py       0.01142
pop of  1O 5pz       0.00216
pop of  1O 3dxy      0.00001
pop of  1O 3dyz      0.00031
pop of  1O 3dz^2     0.00045
pop of  1O 3dxz      0.00031
pop of  1O 3dx2-y2    0.00000
pop of  1O 4dxy      0.00001
pop of  1O 4dyz      0.00332
pop of  1O 4dz^2     0.00299
pop of  1O 4dxz      0.00332
pop of  1O 4dx2-y2    0.00000
pop of  1O 5dxy      0.00001
pop of  1O 5dyz      0.01032
pop of  1O 5dz^2     0.00181
pop of  1O 5dxz      0.01032
pop of  1O 5dx2-y2    0.00007
pop of  1O 4fy^3     0.00000
pop of  1O 4fxyz     0.00000
pop of  1O 4fyz^2    0.00007
pop of  1O 4fz^3     0.00011
pop of  1O 4fxz^2    0.00007
pop of  1O 4fzx^2    0.00000
pop of  1O 4fx^3     0.00000
pop of  1O 5fy^3     0.00000
pop of  1O 5fxyz     0.00001
pop of  1O 5fyz^2    0.00091
pop of  1O 5fz^3     0.00001
pop of  1O 5fxz^2    0.00091
pop of  1O 5fzx^2    0.00003
pop of  1O 5fx^3     0.00000
 ** Mulliken atomic charges  **
charge of  0Fe =      1.29079
charge of  1O =     -1.29079

******** <class 'pyscf.mcscf.mc1step.CASSCF'> flags ********
CAS (8e+4e, 9o), ncore = 5, nvir = 119
max_cycle_macro = 50
max_cycle_micro = 4
conv_tol = 1e-07
conv_tol_grad = None
orbital rotation max_stepsize = 0.02
augmented hessian ah_max_cycle = 30
augmented hessian ah_conv_tol = 1e-12
augmented hessian ah_linear dependence = 1e-14
augmented hessian ah_level shift = 0
augmented hessian ah_start_tol = 2.5
augmented hessian ah_start_cycle = 3
augmented hessian ah_grad_trust_region = 3
kf_trust_region = 3
kf_interval = 4
ci_response_space = 4
ci_grad_trust_region = 3
with_dep4 0
natorb = False
canonicalization = True
sorting_mo_energy = False
chkfile = ./scratch/194164/tmpci0CLt
max_memory 4000 MB (current use 591 MB)
internal_rotation = False

******** SHCI flags ********
executable             = /home/bamu3429/softwares/dice/Dice
mpiprefix              = srun -n20
scratchDirectory       = ./scratch/194164
integralFile           = ./FCIDUMP
configFile             = ./input.dat
outputFile             = ./output.dat
maxIter                = 6
sweep_iter             = []
sweep_epsilon          = []
nPTiter                = 0
Stochastic             = True
fullrestart            = False
restart                = False
num_thrds              = 12
memory                 = None

CASCI E = -138.678199942367  S^2 = 6.0000000
Set conv_tol_grad to 0.000316228
macro iter 1 (21 JK  4 micro), CASSCF E = -138.729946962685  dE = -0.05174702  S^2 = 6.0000000
               |grad[o]|=0.0819  |grad[c]|= None  |ddm|=0.421
macro iter 2 (12 JK  4 micro), CASSCF E = -138.752120890107  dE = -0.022173927  S^2 = 6.0000000
               |grad[o]|=0.157  |grad[c]|= None  |ddm|=0.315
macro iter 3 (10 JK  4 micro), CASSCF E = -138.752348493969  dE = -0.00022760386  S^2 = 6.0000000
               |grad[o]|=0.0189  |grad[c]|= None  |ddm|=0.0287
macro iter 4 (8 JK  3 micro), CASSCF E = -138.752348940583  dE = -4.4661391e-07  S^2 = 6.0000000
               |grad[o]|=0.000658  |grad[c]|= None  |ddm|=0.00126
macro iter 5 (3 JK  1 micro), CASSCF E = -138.752348944055  dE = -3.4728203e-09  S^2 = 6.0000000
               |grad[o]|=6.57e-05  |grad[c]|= None  |ddm|=    0
1-step CASSCF converged in 5 macro (54 JK 16 micro) steps
CASSCF canonicalization
CASSCF energy = -138.752348944055


--------------------------------------------------
                 ICMPSPT CALCULATION              
--------------------------------------------------

Perturbation type: MRLCC
With fully internally contracted scheme
With third order correction

Preparing necessary RDMs
......production of RDMs took      80.50 sec
Reading binary 4RDM from DICE
......reading the RDM took         27.61 sec

(GOOD) Trace 4RDM:  11880.0 =   12*   11*   10*    9
(GOOD) Trace 3RDM:   1320.0 =   12*   11*   10
(GOOD) Trace 2RDM:    132.0 =   12*   11
(GOOD) Trace 1RDM:     12.0 =   12

Producing the integrals
......production of INT took     137.42 sec

Energy_core = -131.43237283
Energy      = -138.75234894

WARNING: Have to use natural orbitals from CAASCF
         offdiagonal elements:    0.83947955

Basic ingredients written to int/
......savings of INGREDIENTS took     161.88 sec

Second-order:
perturber CCVV --        -0.109887992
perturber CCAV --        -0.040218748
perturber ACVV --        -0.248095947
perturber CCAA --        -0.018237430
perturber AAVV --        -0.290166088
perturber CAAV --        -0.139868438
perturber AAAV --        -0.063544170
perturber AAAC --        -0.001758072
Total:                   -0.911776885

Third-order:              0.003125054

Total PT       --        -0.908651831

