 &FCI NORB=9 ,NELEC=8 ,MS2=2,
  ORBSYM=1,1,1,1,1,1,1,1,1,
  ISYM=1,
 &END
  6.497945521635e-01    1  1  1  1
  2.899181259302e-02    2  1  2  1
  5.836559508018e-01    2  2  1  1
  6.383618165404e-01    2  2  2  2
  2.899181259302e-02    3  1  3  1
  8.443750257068e-10    3  2  2  2
  2.851103377792e-02    3  2  3  2
  5.836559508018e-01    3  3  1  1
  5.813406967582e-01    3  3  2  2
 -8.443766628396e-10    3  3  3  2
  6.383618165404e-01    3  3  3  3
  2.051073299029e-02    4  1  1  1
  1.481640448340e-02    4  1  2  2
  1.481640448340e-02    4  1  3  3
  4.599788575198e-03    4  1  4  1
 -6.629193782512e-04    4  2  2  1
 -1.723389739661e-07    4  2  3  1
  1.847724424607e-03    4  2  4  2
  1.723389739609e-07    4  3  2  1
 -6.629193782512e-04    4  3  3  1
  1.847724424607e-03    4  3  4  3
  2.296425268689e-01    4  4  1  1
  2.135766259407e-01    4  4  2  2
  2.135766259407e-01    4  4  3  3
  3.404287041908e-03    4  4  4  1
  2.646907792349e-01    4  4  4  4
  6.084649874187e-07    5  1  2  2
  2.616512306274e-04    5  1  3  2
 -6.084649874071e-07    5  1  3  3
  7.555600610065e-03    5  1  5  1
  8.822263897127e-08    5  2  2  1
 -1.889095505174e-03    5  2  3  1
  9.609552750430e-09    5  2  4  2
  5.966039876481e-04    5  2  4  3
  4.698477126296e-03    5  2  5  2
 -1.889095505174e-03    5  3  2  1
 -8.822263908456e-08    5  3  3  1
  5.966039876481e-04    5  3  4  2
 -9.609552726776e-09    5  3  4  3
  4.698477126296e-03    5  3  5  3
 -2.509279854765e-07    5  4  2  2
  2.329417330319e-03    5  4  3  2
  2.509279846362e-07    5  4  3  3
  2.822823956929e-03    5  4  5  1
  1.060163222280e-02    5  4  5  4
  3.809904591446e-01    5  5  1  1
  3.316918042293e-01    5  5  2  2
  3.316918042293e-01    5  5  3  3
  2.483376394408e-02    5  5  4  1
  3.128771318469e-01    5  5  4  4
  6.431707378886e-01    5  5  5  5
  1.088681289726e-02    6  1  2  1
  3.822128326444e-09    6  1  3  1
  3.511991052749e-04    6  1  4  2
 -2.014732495691e-08    6  1  4  3
  1.044027174523e-06    6  1  5  2
  1.800149037552e-03    6  1  5  3
  1.369479820703e-02    6  1  6  1
  1.373385445296e-01    6  2  1  1
  1.779778253725e-01    6  2  2  2
  6.614111232945e-08    6  2  3  2
  1.546228468579e-01    6  2  3  3
 -2.004372855982e-03    6  2  4  1
 -3.085141640507e-02    6  2  4  4
 -8.174234773218e-07    6  2  5  1
 -9.792228407578e-07    6  2  5  4
 -7.608121589256e-02    6  2  5  5
  1.518873706994e-01    6  2  6  2
  1.379022140549e-05    6  3  1  1
  1.712606633308e-05    6  3  2  2
  1.167490511270e-02    6  3  3  2
  1.726247161701e-05    6  3  3  3
 -3.292216110499e-07    6  3  4  1
 -3.497617460272e-06    6  3  4  4
 -1.423962635236e-03    6  3  5  1
 -2.258390332258e-03    6  3  5  4
 -7.663116891396e-06    6  3  5  5
  1.593948735964e-05    6  3  6  2
  1.273333971196e-02    6  3  6  3
  1.918647548931e-03    6  4  2  1
  3.981089117289e-07    6  4  3  1
 -2.892633463259e-03    6  4  4  2
 -2.926228467155e-07    6  4  4  3
  5.328692268723e-09    6  4  5  2
 -8.588308066200e-04    6  4  5  3
 -1.735075763615e-04    6  4  6  1
  5.738750011042e-03    6  4  6  4
  7.070191014666e-07    6  5  2  1
  3.293004624001e-03    6  5  3  1
 -1.865932211925e-07    6  5  4  2
 -1.215976850312e-03    6  5  4  3
 -7.210593246147e-03    6  5  5  2
 -7.139041548104e-07    6  5  5  3
 -1.520740127766e-06    6  5  6  1
  4.024459708656e-07    6  5  6  4
  1.525803925550e-02    6  5  6  5
  5.085651997861e-01    6  6  1  1
  5.113560462630e-01    6  6  2  2
  5.099215906692e-06    6  6  3  2
  4.779700456599e-01    6  6  3  3
  2.089351793305e-02    6  6  4  1
  2.620098743676e-01    6  6  4  4
  2.648014028727e-06    6  6  5  1
  2.279978682655e-06    6  6  5  4
  4.626924209457e-01    6  6  5  5
  6.560886238653e-02    6  6  6  2
  7.736714543014e-06    6  6  6  3
  5.209207952441e-01    6  6  6  6
 -3.822128231217e-09    7  1  2  1
  1.088681289726e-02    7  1  3  1
  2.014732493709e-08    7  1  4  2
  3.511991052748e-04    7  1  4  3
  1.800149037552e-03    7  1  5  2
 -1.044027174557e-06    7  1  5  3
  6.765057714561e-09    7  1  6  4
 -2.182546331595e-03    7  1  6  5
  1.369479820703e-02    7  1  7  1
 -1.379022140531e-05    7  2  1  1
 -1.726247161626e-05    7  2  2  2
  1.167490511270e-02    7  2  3  2
 -1.712606633289e-05    7  2  3  3
  3.292216109985e-07    7  2  4  1
  3.497617459880e-06    7  2  4  4
 -1.423962635236e-03    7  2  5  1
 -2.258390332258e-03    7  2  5  4
  7.663116890015e-06    7  2  5  5
 -1.593523290091e-05    7  2  6  2
  1.273333483967e-02    7  2  6  3
 -6.025945961087e-06    7  2  6  6
  1.273333971196e-02    7  2  7  2
  1.373385445296e-01    7  3  1  1
  1.546228468579e-01    7  3  2  2
 -6.614111349013e-08    7  3  3  2
  1.779778253725e-01    7  3  3  3
 -2.004372855983e-03    7  3  4  1
 -3.085141640507e-02    7  3  4  4
  8.174234772219e-07    7  3  5  1
  9.792228410660e-07    7  3  5  4
 -7.608121589256e-02    7  3  5  5
  1.264302031264e-01    7  3  6  2
  1.593523290167e-05    7  3  6  3
  5.856301607447e-02    7  3  6  6
 -1.593948735897e-05    7  3  7  2
  1.518873706994e-01    7  3  7  3
 -3.981089117744e-07    7  4  2  1
  1.918647548931e-03    7  4  3  1
  2.926228466938e-07    7  4  4  2
 -2.892633463259e-03    7  4  4  3
 -8.588308066198e-04    7  4  5  2
 -5.328692293862e-09    7  4  5  3
 -6.765057662960e-09    7  4  6  1
  1.834272767050e-03    7  4  6  5
 -1.735075763614e-04    7  4  7  1
  5.738750011042e-03    7  4  7  4
  3.293004624001e-03    7  5  2  1
 -7.070191014624e-07    7  5  3  1
 -1.215976850312e-03    7  5  4  2
  1.865932211993e-07    7  5  4  3
  7.139041546840e-07    7  5  5  2
 -7.210593246148e-03    7  5  5  3
 -2.182546331595e-03    7  5  6  1
  1.834272767050e-03    7  5  6  4
  1.520740127804e-06    7  5  7  1
 -4.024459709656e-07    7  5  7  4
  1.525803925550e-02    7  5  7  5
 -5.095540393875e-06    7  6  2  2
  1.669765647959e-02    7  6  3  2
  5.095540394895e-06    7  6  3  3
  3.372297484020e-03    7  6  5  1
  4.443653157840e-03    7  6  5  4
 -8.615093056771e-07    7  6  6  2
  3.515424013843e-03    7  6  6  3
  2.228213285579e-09    7  6  6  6
  3.515424013843e-03    7  6  7  2
  8.615093062091e-07    7  6  7  3
  1.760825121850e-02    7  6  7  6
  5.085651997861e-01    7  7  1  1
  4.779700456599e-01    7  7  2  2
 -5.099215907159e-06    7  7  3  2
  5.113560462630e-01    7  7  3  3
  2.089351793305e-02    7  7  4  1
  2.620098743676e-01    7  7  4  4
 -2.648014028614e-06    7  7  5  1
 -2.279978684150e-06    7  7  5  4
  4.626924209457e-01    7  7  5  5
  5.856301607447e-02    7  7  6  2
  6.025945960928e-06    7  7  6  3
  4.857203209084e-01    7  7  6  6
 -7.736714543548e-06    7  7  7  2
  6.560886238653e-02    7  7  7  3
 -2.228212238189e-09    7  7  7  6
  5.209207952441e-01    7  7  7  7
  1.359441333552e-01    8  1  1  1
  1.405710797984e-01    8  1  2  2
  1.405710797984e-01    8  1  3  3
 -4.607458561897e-03    8  1  4  1
 -4.809501861155e-02    8  1  4  4
 -1.191120835227e-01    8  1  5  5
  1.268663545788e-01    8  1  6  2
  1.342379785684e-05    8  1  6  3
  2.358838408941e-02    8  1  6  6
 -1.342379785599e-05    8  1  7  2
  1.268663545788e-01    8  1  7  3
  2.358838408941e-02    8  1  7  7
  1.610563569210e-01    8  1  8  1
  1.334944598850e-02    8  2  2  1
 -9.058056672820e-07    8  2  3  1
  2.044965668054e-04    8  2  4  2
  1.979021096205e-07    8  2  4  3
  6.245627183140e-07    8  2  5  2
 -1.377467364811e-03    8  2  5  3
  8.754883112694e-03    8  2  6  1
  1.332834821578e-03    8  2  6  4
 -9.403145152901e-07    8  2  6  5
 -3.020028576551e-08    8  2  7  1
 -4.017238057183e-07    8  2  7  4
 -1.929031264031e-04    8  2  7  5
  1.325972938708e-02    8  2  8  2
  9.058056672188e-07    8  3  2  1
  1.334944598850e-02    8  3  3  1
 -1.979021096297e-07    8  3  4  2
  2.044965668054e-04    8  3  4  3
 -1.377467364811e-03    8  3  5  2
 -6.245627181966e-07    8  3  5  3
  3.020028585240e-08    8  3  6  1
  4.017238057446e-07    8  3  6  4
 -1.929031264032e-04    8  3  6  5
  8.754883112695e-03    8  3  7  1
  1.332834821578e-03    8  3  7  4
  9.403145152257e-07    8  3  7  5
  1.325972938708e-02    8  3  8  3
 -2.993287416454e-02    8  4  1  1
 -2.301694542580e-02    8  4  2  2
 -2.301694542580e-02    8  4  3  3
 -7.366333627507e-03    8  4  4  1
 -7.344834214041e-03    8  4  4  4
 -5.335574475794e-02    8  4  5  5
  1.012894942036e-02    8  4  6  2
  9.928399923079e-07    8  4  6  3
 -3.929737720080e-02    8  4  6  6
 -9.928399921552e-07    8  4  7  2
  1.012894942036e-02    8  4  7  3
 -3.929737720080e-02    8  4  7  7
  1.606016314745e-02    8  4  8  1
  1.575745966160e-02    8  4  8  4
 -3.931358126290e-07    8  5  2  2
 -2.345840006682e-03    8  5  3  2
  3.931358125446e-07    8  5  3  3
 -1.180655022825e-02    8  5  5  1
 -5.896745065266e-03    8  5  5  4
  1.832506912320e-06    8  5  6  2
  2.965431069957e-03    8  5  6  3
 -4.449240977875e-06    8  5  6  6
  2.965431069957e-03    8  5  7  2
 -1.832506912269e-06    8  5  7  3
 -6.558573119220e-03    8  5  7  6
  4.449240977716e-06    8  5  7  7
  2.122736707101e-02    8  5  8  5
  1.356977132482e-02    8  6  2  1
  1.843518852902e-06    8  6  3  1
  3.689134182934e-04    8  6  4  2
  7.098156698389e-08    8  6  4  3
 -6.195326123093e-07    8  6  5  2
 -1.122016222265e-03    8  6  5  3
  2.873919557927e-03    8  6  6  1
  1.844214791404e-04    8  6  6  4
  2.621729551410e-06    8  6  6  5
  2.705358590910e-07    8  6  7  1
 -1.078566215970e-07    8  6  7  4
  3.466661547013e-03    8  6  7  5
  3.681374664452e-03    8  6  8  2
  6.219958568996e-07    8  6  8  3
  1.461515242935e-02    8  6  8  6
 -1.843518852856e-06    8  7  2  1
  1.356977132482e-02    8  7  3  1
 -7.098156697333e-08    8  7  4  2
  3.689134182935e-04    8  7  4  3
 -1.122016222265e-03    8  7  5  2
  6.195326121957e-07    8  7  5  3
 -2.705358590018e-07    8  7  6  1
  1.078566215675e-07    8  7  6  4
  3.466661547013e-03    8  7  6  5
  2.873919557927e-03    8  7  7  1
  1.844214791404e-04    8  7  7  4
 -2.621729551372e-06    8  7  7  5
 -6.219958569165e-07    8  7  8  2
  3.681374664452e-03    8  7  8  3
  1.461515242935e-02    8  7  8  7
  5.187963513123e-01    8  8  1  1
  4.462103195696e-01    8  8  2  2
  4.462103195696e-01    8  8  3  3
  2.808203201541e-02    8  8  4  1
  2.931335441839e-01    8  8  4  4
  5.495014079052e-01    8  8  5  5
  4.987152183833e-03    8  8  6  2
  8.141068016675e-07    8  8  6  3
  5.163772785918e-01    8  8  6  6
 -8.141068026858e-07    8  8  7  2
  4.987152183829e-03    8  8  7  3
  5.163772785918e-01    8  8  7  7
 -4.345313022128e-02    8  8  8  1
 -5.431028028458e-02    8  8  8  4
  6.248124512896e-01    8  8  8  8
 -1.239929624497e-01    9  1  1  1
 -1.045113859522e-01    9  1  2  2
 -1.045113859522e-01    9  1  3  3
 -5.027606945719e-03    9  1  4  1
 -1.238481528165e-02    9  1  4  4
 -2.640004763660e-02    9  1  5  5
 -6.819497475135e-02    9  1  6  2
 -8.147143458944e-06    9  1  6  3
 -8.319477443599e-02    9  1  6  6
  8.147143458934e-06    9  1  7  2
 -6.819497475135e-02    9  1  7  3
 -8.319477443599e-02    9  1  7  7
 -6.198920244774e-02    9  1  8  1
  1.362097667801e-03    9  1  8  4
 -8.142838718223e-02    9  1  8  8
  8.882390539097e-02    9  1  9  1
 -2.617436770262e-03    9  2  2  1
  4.636463984956e-07    9  2  3  1
 -1.446092955316e-03    9  2  4  2
  5.222819737661e-08    9  2  4  3
  5.246893475386e-08    9  2  5  2
 -1.845998532533e-03    9  2  5  3
 -8.901256295964e-03    9  2  6  1
  2.325731791568e-03    9  2  6  4
  4.073949715254e-07    9  2  6  5
  1.702510026055e-06    9  2  7  1
 -3.492910518394e-07    9  2  7  4
  2.784068474105e-03    9  2  7  5
 -3.426649456492e-03    9  2  8  2
  6.365302430932e-07    9  2  8  3
 -3.453645841997e-03    9  2  8  6
  2.195413768306e-07    9  2  8  7
  1.404808416587e-02    9  2  9  2
 -4.636463983834e-07    9  3  2  1
 -2.617436770261e-03    9  3  3  1
 -5.222819740615e-08    9  3  4  2
 -1.446092955316e-03    9  3  4  3
 -1.845998532533e-03    9  3  5  2
 -5.246893480664e-08    9  3  5  3
 -1.702510026003e-06    9  3  6  1
  3.492910518331e-07    9  3  6  4
  2.784068474105e-03    9  3  6  5
 -8.901256295964e-03    9  3  7  1
  2.325731791568e-03    9  3  7  4
 -4.073949715106e-07    9  3  7  5
 -6.365302430547e-07    9  3  8  2
 -3.426649456492e-03    9  3  8  3
 -2.195413768186e-07    9  3  8  6
 -3.453645841997e-03    9  3  8  7
  1.404808416587e-02    9  3  9  3
 -2.886737770813e-02    9  4  1  1
 -2.556221668366e-02    9  4  2  2
 -2.556221668366e-02    9  4  3  3
 -2.824551707802e-03    9  4  4  1
 -5.765225268015e-03    9  4  4  4
 -2.844473110241e-02    9  4  5  5
  3.583615014526e-04    9  4  6  2
  1.771933341687e-07    9  4  6  3
 -2.879230741117e-02    9  4  6  6
 -1.771933341309e-07    9  4  7  2
  3.583615014529e-04    9  4  7  3
 -2.879230741117e-02    9  4  7  7
  1.381276307575e-03    9  4  8  1
  5.763836606120e-03    9  4  8  4
 -3.405474750687e-02    9  4  8  8
  3.435530085747e-03    9  4  9  1
  3.859112615020e-03    9  4  9  4
  3.720056721410e-07    9  5  2  2
 -1.892922571096e-03    9  5  3  2
 -3.720056722809e-07    9  5  3  3
 -1.437584930061e-03    9  5  5  1
 -1.885855161789e-03    9  5  5  4
  6.350620305124e-07    9  5  6  2
  1.387597868513e-03    9  5  6  3
 -1.217870183465e-06    9  5  6  6
  1.387597868513e-03    9  5  7  2
 -6.350620305239e-07    9  5  7  3
 -2.586934971953e-03    9  5  7  6
  1.217870183370e-06    9  5  7  7
  3.790506548091e-03    9  5  8  5
  1.693451292811e-03    9  5  9  5
 -1.359392254053e-02    9  6  2  1
 -2.442721543610e-06    9  6  3  1
  1.678412763314e-03    9  6  4  2
  3.086857597369e-07    9  6  4  3
  4.317748176624e-07    9  6  5  2
  1.943946596052e-03    9  6  5  3
 -5.935272552413e-03    9  6  6  1
 -2.854246296096e-03    9  6  6  4
 -7.805876365748e-07    9  6  6  5
 -3.409964719046e-07    9  6  7  1
 -2.167170553666e-07    9  6  7  4
 -2.624298132686e-03    9  6  7  5
 -7.123624815050e-03    9  6  8  2
 -1.580884444345e-06    9  6  8  3
 -4.313129127012e-03    9  6  8  6
 -2.453520351814e-08    9  6  8  7
  2.170178186674e-03    9  6  9  2
  2.380027070933e-08    9  6  9  3
  1.185825921568e-02    9  6  9  6
  2.442721543689e-06    9  7  2  1
 -1.359392254053e-02    9  7  3  1
 -3.086857597321e-07    9  7  4  2
  1.678412763314e-03    9  7  4  3
  1.943946596052e-03    9  7  5  2
 -4.317748176472e-07    9  7  5  3
  3.409964717943e-07    9  7  6  1
  2.167170554202e-07    9  7  6  4
 -2.624298132686e-03    9  7  6  5
 -5.935272552413e-03    9  7  7  1
 -2.854246296096e-03    9  7  7  4
  7.805876366193e-07    9  7  7  5
  1.580884444363e-06    9  7  8  2
 -7.123624815050e-03    9  7  8  3
  2.453520351706e-08    9  7  8  6
 -4.313129127012e-03    9  7  8  7
 -2.380027068507e-08    9  7  9  2
  2.170178186674e-03    9  7  9  3
  1.185825921568e-02    9  7  9  7
 -9.261408556293e-02    9  8  1  1
 -8.924103356330e-02    9  8  2  2
 -8.924103356330e-02    9  8  3  3
  1.045783792555e-03    9  8  4  1
  1.619763123375e-02    9  8  4  4
  4.837019226919e-02    9  8  5  5
 -7.456801312373e-02    9  8  6  2
 -7.780358157512e-06    9  8  6  3
 -3.156034255016e-02    9  8  6  6
  7.780358157131e-06    9  8  7  2
 -7.456801312373e-02    9  8  7  3
 -3.156034255016e-02    9  8  7  7
 -8.864620180483e-02    9  8  8  1
 -1.003224203473e-02    9  8  8  4
  6.808022082608e-03    9  8  8  8
  5.523182197538e-02    9  8  9  1
 -7.952649074293e-04    9  8  9  4
  6.300580005358e-02    9  8  9  8
  5.276107956607e-01    9  9  1  1
  4.981546916030e-01    9  9  2  2
  4.981546916030e-01    9  9  3  3
  1.068217217550e-02    9  9  4  1
  1.891396842523e-01    9  9  4  4
  2.847554607299e-01    9  9  5  5
  1.264073569150e-01    9  9  6  2
  1.408674725467e-05    9  9  6  3
  4.142056180203e-01    9  9  6  6
 -1.408674725435e-05    9  9  7  2
  1.264073569150e-01    9  9  7  3
  4.142056180203e-01    9  9  7  7
  1.343617403230e-01    9  9  8  1
 -2.107865696167e-02    9  9  8  4
  3.945249212036e-01    9  9  8  8
 -7.763333211036e-02    9  9  9  1
 -2.219375081439e-02    9  9  9  4
 -7.622678059451e-02    9  9  9  8
  5.053980992131e-01    9  9  9  9
 -3.965711818586e+00    1  1  0  0
 -3.860675917124e+00    2  2  0  0
 -3.860675917124e+00    3  3  0  0
 -1.091287405587e-01    4  1  0  0
 -1.871417484717e+00    4  4  0  0
 -2.829429663440e+00    5  5  0  0
 -5.895908137366e-01    6  2  0  0
  7.234339476637e-06    6  3  0  0
 -3.112932575111e+00    6  6  0  0
 -7.234339479954e-06    7  2  0  0
 -5.895908137366e-01    7  3  0  0
 -3.112932575111e+00    7  7  0  0
 -4.800538943387e-01    8  1  0  0
  2.010908815373e-01    8  4  0  0
 -3.104532427710e+00    8  8  0  0
  5.188531413957e-01    9  1  0  0
  1.557964005758e-01    9  4  0  0
  1.968553020041e-01    9  8  0  0
 -2.076857841918e+00    9  9  0  0
    -57.606030621820   0  0  0  0
