#INFO: **** input file is /projects/bamu3429/BENCHMARK/fresh_atoms/MRPT/vdz/monoxides/TiO/mrpt.py ****
import json
from pyscf import gto,scf,mcscf, fci, lo, ci, cc
from pyscf.scf import ROHF, UHF,ROKS
import numpy as np
import pandas as pd

# THIS IS WERE IT STARTS ====================================

df=json.load(open("../../../trail.json"))

spins={'ScO':1, 'TiO':2, 'VO':3, 'CrO':4, 'MnO':5, 'FeO':4, 'CuO':1}

nd={'Sc':(1,0), 'Ti':(2,0), 'V':(3,0), 'Cr':(5,0), 'Mn':(5,0), 'Fe':(5,1), 'Cu':(5,4)}

cas={'Sc':3, 'Ti':4, 'V':5, 'Cr':6, 'Mn':7, 'Fe':8, 'Cu':11}

re={'ScO':1.668, 'TiO':1.623, 'VO':1.591, 'CrO':1.621, 'MnO':1.648, 'FeO':1.616, 'CuO':1.725}

datacsv={}
for nm in ['basis','charge','method','molecule','pseudopotential',
           'totalenergy','totalenergy-stocherr','totalenergy-syserr']:
  datacsv[nm]=[]

basis='vdz'
element='Ti'

mol=gto.Mole()
mol.ecp={}
mol.basis={}
for el in [element,'O']:
  mol.ecp[el]=gto.basis.parse_ecp(df[el]['ecp'])
  mol.basis[el]=gto.basis.parse(df[el][basis])
mol.charge=0
mol.spin=spins[element+'O']
mol.build(atom="%s 0. 0. 0.; O 0. 0. %g"%(element,re[element+'O']),verbose=4)

m=ROHF(mol)
m.level_shift=1000.0
dm=m.from_chk("../../../../HF/monoxides/"+element+basis+"0.chk")
hf=m.kernel(dm)
m.analyze()

from pyscf.shciscf import shci
mc = shci.SHCISCF(m, 9, 4+cas[element])
#mc.fcisolver.conv_tol = 1e-14
mc.fcisolver.mpiprefix="srun -n20"
mc.fcisolver.num_thrds=12
mc.verbose = 4
cas=mc.kernel()[0]
 
from pyscf.icmpspt import icmpspt
pt=icmpspt.icmpspt(mc,rdmM=500, PTM=1000,\
                          pttype="MRLCC",\
                          third_order=True,\
                          fully_ic=True,\
                          do_dm4=True)

datacsv['basis'].append(basis)
datacsv['charge'].append(0)
datacsv['method'].append('MRPT')
datacsv['molecule'].append(element)
datacsv['pseudopotential'].append('trail')
datacsv['totalenergy'].append(cas+pt)
datacsv['totalenergy-stocherr'].append(0.0)
datacsv['totalenergy-syserr'].append(0.0)
pd.DataFrame(datacsv).to_csv(element+".csv",index=False)

#INFO: ******************** input file end ********************


System: ('Linux', 'bnode0302.rc.int.colorado.edu', '3.10.0-514.41.1.el7.x86_64', '#1 SMP Wed Jan 17 10:26:16 EST 2018', 'x86_64', 'x86_64')  Threads 28
Python 2.7.11 (default, Mar 22 2016, 01:42:54) 
[GCC Intel(R) C++ gcc 4.8 mode]
numpy 1.11.1  scipy 0.17.1
Date: Wed Apr 18 13:03:21 2018
PySCF version 1.4.6
PySCF path  /projects/bamu3429/softwares/pyscf_uptodate/pyscf
GIT ORIG_HEAD f3591ef22170896a4cdc2aadaa6f5da388ffcadb
GIT HEAD      ref: refs/heads/master
GIT master branch  1847583fb1d2472321833d3c71c8b7008e5fabf5

[INPUT] VERBOSE 4
[INPUT] num atoms = 2
[INPUT] num electrons = 18
[INPUT] charge = 0
[INPUT] spin (= nelec alpha-beta = 2S) = 2
[INPUT] symmetry False subgroup None
[INPUT]  1 Ti     0.000000000000   0.000000000000   0.000000000000 AA    0.000000000000   0.000000000000   0.000000000000 Bohr
[INPUT]  2 O      0.000000000000   0.000000000000   1.623000000000 AA    0.000000000000   0.000000000000   3.067025500169 Bohr
[INPUT] ---------------- BASIS SET ---------------- 
[INPUT] l, kappa, [nprim/nctr], expnt,             c_1 c_2 ...
[INPUT] O
[INPUT] 0    0    [10   /1   ]  57.663349         -0.002794
                                35.726816         0.023976
                                22.453757         -0.115974
                                14.732301         0.288033
                                9.739917          -0.274786
                                5.042008          -0.083789
                                2.157818          0.063778
                                1.002916          0.410182
                                0.421839          0.504044
                                0.173041          0.172152
[INPUT] 0    0    [1    /1   ]  0.222099             1
[INPUT] 0    0    [1    /1   ]  0.08884              1
[INPUT] 1    0    [10   /1   ]  52.47406          -0.000522
                                32.138432         0.004857
                                19.458579         -0.027749
                                11.839344         0.074258
                                7.91003           0.014369
                                3.670858          0.153479
                                1.53966           0.283685
                                0.647119          0.358201
                                0.267853          0.29559
                                0.107198          0.104889
[INPUT] 1    0    [1    /1   ]  0.252604             1
[INPUT] 1    0    [1    /1   ]  0.101042             1
[INPUT] 2    0    [1    /1   ]  1.223113             1
[INPUT] 2    0    [1    /1   ]  0.489245             1
[INPUT] Ti
[INPUT] 0    0    [12   /1   ]  37.13946663       0.002411
                                11.66061728       -0.575963
                                8.9751153         2.645948
                                7.67011905        -2.362876
                                3.44923714        -0.059842
                                1.58705441        0.244002
                                0.95387432        0.58593
                                0.47300537        0.378609
                                0.2203041         0.031099
                                0.10349534        0.004602
                                0.04822069        0.000609
                                0.0226639         0.001044
[INPUT] 0    0    [12   /1   ]  37.13946663       -0.000363
                                11.66061728       0.129591
                                8.9751153         -0.625086
                                7.67011905        0.572499
                                3.44923714        0.016652
                                1.58705441        -0.073052
                                0.95387432        -0.203234
                                0.47300537        -0.251131
                                0.2203041         -0.044619
                                0.10349534        0.38905
                                0.04822069        0.591401
                                0.0226639         0.208165
[INPUT] 0    0    [12   /1   ]  37.13946663       -0.001116
                                11.66061728       0.508798
                                8.9751153         -2.594276
                                7.67011905        2.468935
                                3.44923714        0.026471
                                1.58705441        -1.13173
                                0.95387432        -0.392618
                                0.47300537        0.479234
                                0.2203041         0.927545
                                0.10349534        0.387481
                                0.04822069        -0.588339
                                0.0226639         -0.396132
[INPUT] 0    0    [1    /1   ]  0.0226639            1
[INPUT] 0    0    [1    /1   ]  0.01065211           1
[INPUT] 1    0    [12   /1   ]  44.38520603       0.000557
                                23.85822456       -0.004857
                                12.73507149       0.027448
                                6.00842867        -0.150306
                                3.96301478        0.092203
                                2.13751474        0.210744
                                1.20712576        0.397756
                                0.62000194        0.354359
                                0.30900057        0.130823
                                0.12918293        0.012952
                                0.05400711        -0.000125
                                0.02257859        0.000245
[INPUT] 1    0    [12   /1   ]  44.38520603       -7.7e-05
                                23.85822456       0.000906
                                12.73507149       -0.006126
                                6.00842867        0.038285
                                3.96301478        -0.027356
                                2.13751474        -0.059665
                                1.20712576        -0.115513
                                0.62000194        -0.130421
                                0.30900057        0.025358
                                0.12918293        0.394962
                                0.05400711        0.54831
                                0.02257859        0.169017
[INPUT] 1    0    [12   /1   ]  44.38520603       0.000315
                                23.85822456       -0.004549
                                12.73507149       0.035032
                                6.00842867        -0.269496
                                3.96301478        0.220568
                                2.13751474        0.779761
                                1.20712576        0.240982
                                0.62000194        -0.859612
                                0.30900057        -0.578446
                                0.12918293        0.638634
                                0.05400711        0.393609
                                0.02257859        -0.00321
[INPUT] 1    0    [1    /1   ]  0.02257859           1
[INPUT] 1    0    [1    /1   ]  0.00943936           1
[INPUT] 2    0    [10   /1   ]  29.31465998       -0.000519
                                13.63067536       -0.007186
                                8.04907964        0.095441
                                3.25682476        0.170565
                                1.474054          0.27882
                                0.66141289        0.324798
                                0.29673638        0.280135
                                0.13456087        0.172066
                                0.06095666        0.058237
                                0.02784531        0.004588
[INPUT] 2    0    [10   /1   ]  29.31465998       0.002631
                                13.63067536       -0.005278
                                8.04907964        -0.065213
                                3.25682476        -0.254704
                                1.474054          -0.486598
                                0.66141289        0.011811
                                0.29673638        0.338416
                                0.13456087        0.386607
                                0.06095666        0.182743
                                0.02784531        0.018903
[INPUT] 2    0    [1    /1   ]  0.02784531           1
[INPUT] 2    0    [1    /1   ]  0.01271987           1
[INPUT] 3    0    [1    /1   ]  1.635357             1
[INPUT] 3    0    [1    /1   ]  0.74703931           1
nuclear repulsion = 23.4755139779667
number of shells = 24
number of NR pGTOs = 334
number of NR cGTOs = 76
basis = {'O': [[0, [57.663349, -0.002794], [35.726816, 0.023976], [22.453757, -0.115974], [14.732301, 0.288033], [9.739917, -0.274786], [5.042008, -0.083789], [2.157818, 0.063778], [1.002916, 0.410182], [0.421839, 0.504044], [0.173041, 0.172152]], [0, [0.222099, 1.0]], [0, [0.08884, 1.0]], [1, [52.47406, -0.000522], [32.138432, 0.004857], [19.458579, -0.027749], [11.839344, 0.074258], [7.91003, 0.014369], [3.670858, 0.153479], [1.53966, 0.283685], [0.647119, 0.358201], [0.267853, 0.29559], [0.107198, 0.104889]], [1, [0.252604, 1.0]], [1, [0.101042, 1.0]], [2, [1.223113, 1.0]], [2, [0.489245, 1.0]]], 'Ti': [[0, [37.13946663, 0.002411], [11.66061728, -0.575963], [8.9751153, 2.645948], [7.67011905, -2.362876], [3.44923714, -0.059842], [1.58705441, 0.244002], [0.95387432, 0.58593], [0.47300537, 0.378609], [0.2203041, 0.031099], [0.10349534, 0.004602], [0.04822069, 0.000609], [0.0226639, 0.001044]], [0, [37.13946663, -0.000363], [11.66061728, 0.129591], [8.9751153, -0.625086], [7.67011905, 0.572499], [3.44923714, 0.016652], [1.58705441, -0.073052], [0.95387432, -0.203234], [0.47300537, -0.251131], [0.2203041, -0.044619], [0.10349534, 0.38905], [0.04822069, 0.591401], [0.0226639, 0.208165]], [0, [37.13946663, -0.001116], [11.66061728, 0.508798], [8.9751153, -2.594276], [7.67011905, 2.468935], [3.44923714, 0.026471], [1.58705441, -1.13173], [0.95387432, -0.392618], [0.47300537, 0.479234], [0.2203041, 0.927545], [0.10349534, 0.387481], [0.04822069, -0.588339], [0.0226639, -0.396132]], [0, [0.0226639, 1.0]], [0, [0.01065211, 1.0]], [1, [44.38520603, 0.000557], [23.85822456, -0.004857], [12.73507149, 0.027448], [6.00842867, -0.150306], [3.96301478, 0.092203], [2.13751474, 0.210744], [1.20712576, 0.397756], [0.62000194, 0.354359], [0.30900057, 0.130823], [0.12918293, 0.012952], [0.05400711, -0.000125], [0.02257859, 0.000245]], [1, [44.38520603, -7.7e-05], [23.85822456, 0.000906], [12.73507149, -0.006126], [6.00842867, 0.038285], [3.96301478, -0.027356], [2.13751474, -0.059665], [1.20712576, -0.115513], [0.62000194, -0.130421], [0.30900057, 0.025358], [0.12918293, 0.394962], [0.05400711, 0.54831], [0.02257859, 0.169017]], [1, [44.38520603, 0.000315], [23.85822456, -0.004549], [12.73507149, 0.035032], [6.00842867, -0.269496], [3.96301478, 0.220568], [2.13751474, 0.779761], [1.20712576, 0.240982], [0.62000194, -0.859612], [0.30900057, -0.578446], [0.12918293, 0.638634], [0.05400711, 0.393609], [0.02257859, -0.00321]], [1, [0.02257859, 1.0]], [1, [0.00943936, 1.0]], [2, [29.31465998, -0.000519], [13.63067536, -0.007186], [8.04907964, 0.095441], [3.25682476, 0.170565], [1.474054, 0.27882], [0.66141289, 0.324798], [0.29673638, 0.280135], [0.13456087, 0.172066], [0.06095666, 0.058237], [0.02784531, 0.004588]], [2, [29.31465998, 0.002631], [13.63067536, -0.005278], [8.04907964, -0.065213], [3.25682476, -0.254704], [1.474054, -0.486598], [0.66141289, 0.011811], [0.29673638, 0.338416], [0.13456087, 0.386607], [0.06095666, 0.182743], [0.02784531, 0.018903]], [2, [0.02784531, 1.0]], [2, [0.01271987, 1.0]], [3, [1.635357, 1.0]], [3, [0.74703931, 1.0]]]}
ecp = {'O': [2, [[-1, [[], [[10.27717748, 6.0]], [[15.99566749, 1232.50197768], [10.46901775, -696.47008301], [14.6384801, -2654.22657081], [12.57591181, 2101.67732548]], [[7.77739102, 61.66306486]]]], [0, [[], [], [[12.39426073, -656683.37638839], [12.38126171, 657858.57667068], [8.57671033, 511.50098405], [9.89256508, -2579.54665641], [28.05641604, -57.68129584], [17.24753607, 970.30940152]], []]], [1, [[], [], [[14.78918914, -363027.24258186], [14.82014018, 361852.52314043], [22.89622221, -1300.20069256], [8.51331893, -181.96869573], [11.48609758, 2194.87589959], [27.22017524, 451.19906206]], []]]]], 'Ti': [10, [[-1, [[], [[8.52499277, 12.0]], [[15.2433413, 2048.39512837], [9.82605516, -812.71625987], [13.73638629, -6663.62886396], [12.6545051, 5396.93874773]], [[7.54790686, 102.29991323]]]], [0, [[], [], [[6.07854372, -5355.67455847], [6.60870356, 4802.76911085], [5.40803832, 1304.66429039], [10.43037595, -1133.61681175], [18.40796253, -258.77562194], [15.384288, 672.53886697]], []]], [1, [[], [], [[9.60319864, 56981.17339652], [9.66270511, -57002.97844363], [15.06515908, 1335.72576887], [16.36599976, -813.49634683], [7.86420177, -720.45341501], [10.25452653, 239.69852194]], []]], [2, [[], [], [[10.56650824, -4262.72074057], [2.71368379, -1.34753473], [9.33780917, 1569.82864567], [31.60560687, -0.4538755], [12.28030141, 5034.44351544], [13.3677017, -2350.67846378]], []]]]]}
CPU time:         3.70


******** <class 'pyscf.scf.rohf.ROHF'> flags ********
method = ROHF
initial guess = minao
damping factor = 0
level shift factor = 1000.0
DIIS = <class 'pyscf.scf.diis.CDIIS'>
DIIS start cycle = 1
DIIS space = 8
SCF tol = 1e-09
SCF gradient tol = None
max. SCF cycles = 50
direct_scf = True
direct_scf_tol = 1e-13
chkfile to save SCF result = /rc_scratch/bamu3429/tmpPVvtzE
max_memory 4000 MB (current use 167 MB)
num. doubly occ = 8  num. singly occ = 2
Set gradient conv threshold to 3.16228e-05
init E= -73.2697360578048
  HOMO = 499.878739324894  LUMO = 1000.01280947069
cycle= 1 E= -73.2697360578051  delta_E= -2.7e-13  |g|= 1.21e-05  |ddm|= 1.38e-07
  HOMO = -0.121260673062987  LUMO = 0.0128094707008047
Extra cycle  E= -73.2697360578807  delta_E= -7.57e-11  |g|= 4.05e-06  |ddm|= 2.63e-05
converged SCF energy = -73.2697360578807
**** MO energy ****
                Roothaan           | alpha              | beta
MO #1   energy= -2.9737055978858   | -3.01263691423307  | -2.93477427531016  occ= 2
MO #2   energy= -1.89389137895437  | -1.90835023779394  | -1.87943252317125  occ= 2
MO #3   energy= -1.86058287887539  | -1.92155996787985  | -1.79960578987094  occ= 2
MO #4   energy= -1.86058287887539  | -1.92155996787985  | -1.79960578987093  occ= 2
MO #5   energy= -1.15667469430674  | -1.15882777717981  | -1.15452161021613  occ= 2
MO #6   energy= -0.461701412292228 | -0.466911402066158 | -0.456491412682847 occ= 2
MO #7   energy= -0.44324992741461  | -0.446054424618109 | -0.440445430211109 occ= 2
MO #8   energy= -0.443249927414605 | -0.446054424618105 | -0.440445430211104 occ= 2
MO #9   energy= -0.124430910373736 | -0.266524456325433 | 0.0176627651080364 occ= 1
MO #10  energy= -0.121260673062987 | -0.457315272465481 | 0.214794525632387  occ= 1
MO #11  energy= 0.0128094707008047 | 0.00748235675811816 | 0.0181365846434907 occ= 0
MO #12  energy= 0.0128094707008056 | 0.00748235675811821 | 0.0181365846434916 occ= 0
MO #13  energy= 0.0157710538932366 | 0.0139291222503008 | 0.0176129524556019 occ= 0
MO #14  energy= 0.025751149567069  | 0.0248010882341535 | 0.0267012047264092 occ= 0
MO #15  energy= 0.0376681686407767 | 0.0374824278251797 | 0.0378539094563608 occ= 0
MO #16  energy= 0.0380509523258412 | 0.0379132612356849 | 0.0381886466818809 occ= 0
MO #17  energy= 0.0412695825843852 | 0.039576119786405  | 0.0429630453823663 occ= 0
MO #18  energy= 0.0412695825843857 | 0.0395761197864062 | 0.0429630453823649 occ= 0
MO #19  energy= 0.0433109006477985 | 0.042579860798761  | 0.044041939491473  occ= 0
MO #20  energy= 0.0445683202781729 | 0.0322755407170376 | 0.0568610998393078 occ= 0
MO #21  energy= 0.0445683202781731 | 0.0322755407170355 | 0.0568610998393102 occ= 0
MO #22  energy= 0.0616354491449987 | 0.0488172312381994 | 0.0744536527642255 occ= 0
MO #23  energy= 0.0954359106488141 | 0.0883504759937856 | 0.102521345303825  occ= 0
MO #24  energy= 0.119676959779608  | 0.11500976228948   | 0.124344078286689  occ= 0
MO #25  energy= 0.126359400590753  | 0.124265763178877  | 0.12845303800263   occ= 0
MO #26  energy= 0.126359400590754  | 0.124265763178878  | 0.128453038002631  occ= 0
MO #27  energy= 0.128184075634535  | 0.125263304112633  | 0.131104822087932  occ= 0
MO #28  energy= 0.142819683931696  | 0.131658728366246  | 0.153980500465016  occ= 0
MO #29  energy= 0.163339702039266  | 0.147233452962595  | 0.179445951115938  occ= 0
MO #30  energy= 0.163339702039266  | 0.147233452962594  | 0.179445951115938  occ= 0
MO #31  energy= 0.172576939611215  | 0.160483400199064  | 0.184670595355494  occ= 0
MO #32  energy= 0.174326357293748  | 0.165794541214377  | 0.182858173373115  occ= 0
MO #33  energy= 0.24641938787754   | 0.228814133233132  | 0.264024642521951  occ= 0
MO #34  energy= 0.246419387877543  | 0.228814133233133  | 0.264024642521953  occ= 0
MO #35  energy= 0.38284053869573   | 0.37730856968974   | 0.388372522412969  occ= 0
MO #36  energy= 0.437672129976395  | 0.43623191226682   | 0.43911234768597   occ= 0
MO #37  energy= 0.437672129976415  | 0.436231912266835  | 0.439112347685994  occ= 0
MO #38  energy= 0.467039241354693  | 0.462743685021934  | 0.471334778495753  occ= 0
MO #39  energy= 0.930156746204244  | 0.914783420471182  | 0.945530045772938  occ= 0
MO #40  energy= 0.961301442409236  | 0.894053798714663  | 1.02854857305966   occ= 0
MO #41  energy= 1.02913788741301   | 1.01890484174693   | 1.03937093307908   occ= 0
MO #42  energy= 1.16729339241562   | 1.15283984895396   | 1.18174693587726   occ= 0
MO #43  energy= 1.16729339241562   | 1.15283984895397   | 1.18174693587727   occ= 0
MO #44  energy= 1.40287886542089   | 1.39711040554073   | 1.40864731572306   occ= 0
MO #45  energy= 1.40527668414499   | 1.40357725551053   | 1.40697611277944   occ= 0
MO #46  energy= 1.40952079712797   | 1.39698846255457   | 1.42205312366376   occ= 0
MO #47  energy= 1.49494185600429   | 1.49151653519608   | 1.4983671768125    occ= 0
MO #48  energy= 1.49494185600431   | 1.4915165351961    | 1.49836717681252   occ= 0
MO #49  energy= 1.50096107012804   | 1.49283852162675   | 1.50908359092496   occ= 0
MO #50  energy= 1.55675797253851   | 1.55559696623374   | 1.55791897884327   occ= 0
MO #51  energy= 1.55675797253852   | 1.55559696623376   | 1.55791897884328   occ= 0
MO #52  energy= 1.80326764449819   | 1.79472259837479   | 1.81181270403298   occ= 0
MO #53  energy= 1.9612599101767    | 1.95612728524366   | 1.96639254162263   occ= 0
MO #54  energy= 2.15894891959348   | 2.12081372723886   | 2.1970841119481    occ= 0
MO #55  energy= 2.15894891959349   | 2.12081372723887   | 2.1970841119481    occ= 0
MO #56  energy= 2.23704586051058   | 2.20941219684656   | 2.26467952325975   occ= 0
MO #57  energy= 2.24475837551074   | 2.24013667069679   | 2.24938008032469   occ= 0
MO #58  energy= 2.26027044225763   | 2.23539002983207   | 2.28515085468318   occ= 0
MO #59  energy= 2.26027044225763   | 2.23539002983207   | 2.28515085468318   occ= 0
MO #60  energy= 2.5038970255158    | 2.49768667464327   | 2.51010737887928   occ= 0
MO #61  energy= 2.67413667605431   | 2.66687916939645   | 2.68139418271216   occ= 0
MO #62  energy= 2.67413667605431   | 2.66687916939645   | 2.68139418271217   occ= 0
MO #63  energy= 3.46702811888484   | 3.45909734180543   | 3.4749588986078    occ= 0
MO #64  energy= 4.21686494374395   | 4.21666768729943   | 4.21706220018846   occ= 0
MO #65  energy= 4.21705063487601   | 4.21665571107842   | 4.21744555866153   occ= 0
MO #66  energy= 4.32944669176321   | 4.32900104816105   | 4.32989233536537   occ= 0
MO #67  energy= 4.32944669176321   | 4.32900104816105   | 4.32989233536537   occ= 0
MO #68  energy= 4.43369140259916   | 4.43228298420832   | 4.43509982092744   occ= 0
MO #69  energy= 5.90021813702336   | 5.86588610141472   | 5.93455017263199   occ= 0
MO #70  energy= 5.90021813702336   | 5.86588610141473   | 5.934550172632     occ= 0
MO #71  energy= 5.93385487215706   | 5.90535979796536   | 5.96234994632215   occ= 0
MO #72  energy= 5.93610789875865   | 5.93135697438753   | 5.94085882312976   occ= 0
MO #73  energy= 6.06029183424266   | 6.05368710065641   | 6.0668965677398    occ= 0
MO #74  energy= 6.11343525889012   | 6.10203287195239   | 6.12483764582787   occ= 0
MO #75  energy= 6.11343525889012   | 6.10203287195239   | 6.12483764582787   occ= 0
MO #76  energy= 6.22271424397359   | 6.21365275615284   | 6.23177573183474   occ= 0
 ** Mulliken pop on meta-lowdin orthogonal AOs  **
 ** Mulliken pop  **
pop of  0Ti 3s        1.99959
pop of  0Ti 4s        0.89247
pop of  0Ti 5s        0.00422
pop of  0Ti 6s        0.00346
pop of  0Ti 7s        0.00179
pop of  0Ti 3px       1.99926
pop of  0Ti 3py       1.99926
pop of  0Ti 3pz       1.99624
pop of  0Ti 4px       0.01101
pop of  0Ti 4py       0.01101
pop of  0Ti 4pz       0.07933
pop of  0Ti 5px       0.00017
pop of  0Ti 5py       0.00017
pop of  0Ti 5pz       0.00636
pop of  0Ti 6px       0.00033
pop of  0Ti 6py       0.00033
pop of  0Ti 6pz       0.01462
pop of  0Ti 7px       0.00006
pop of  0Ti 7py       0.00006
pop of  0Ti 7pz       0.00160
pop of  0Ti 3dxy      0.99253
pop of  0Ti 3dyz      0.31215
pop of  0Ti 3dz^2     0.52625
pop of  0Ti 3dxz      0.31215
pop of  0Ti 3dx2-y2    0.00030
pop of  0Ti 4dxy      0.00528
pop of  0Ti 4dyz      0.00061
pop of  0Ti 4dz^2     0.00498
pop of  0Ti 4dxz      0.00061
pop of  0Ti 4dx2-y2    0.00000
pop of  0Ti 5dxy      0.00178
pop of  0Ti 5dyz      0.00003
pop of  0Ti 5dz^2     0.00192
pop of  0Ti 5dxz      0.00003
pop of  0Ti 5dx2-y2    0.00000
pop of  0Ti 6dxy      0.00001
pop of  0Ti 6dyz      0.00000
pop of  0Ti 6dz^2     0.00004
pop of  0Ti 6dxz      0.00000
pop of  0Ti 6dx2-y2    0.00000
pop of  0Ti 4fy^3     0.00004
pop of  0Ti 4fxyz     0.00000
pop of  0Ti 4fyz^2    0.00018
pop of  0Ti 4fz^3     0.00035
pop of  0Ti 4fxz^2    0.00018
pop of  0Ti 4fzx^2    0.00000
pop of  0Ti 4fx^3     0.00004
pop of  0Ti 5fy^3     0.00006
pop of  0Ti 5fxyz     0.00005
pop of  0Ti 5fyz^2    0.00106
pop of  0Ti 5fz^3     0.00144
pop of  0Ti 5fxz^2    0.00106
pop of  0Ti 5fzx^2    0.00000
pop of  0Ti 5fx^3     0.00006
pop of  1O 2s        1.85620
pop of  1O 3s        0.00606
pop of  1O 4s        0.01879
pop of  1O 2px       1.66463
pop of  1O 2py       1.66463
pop of  1O 2pz       1.57674
pop of  1O 3px       0.00284
pop of  1O 3py       0.00284
pop of  1O 3pz       0.00133
pop of  1O 4px       0.00243
pop of  1O 4py       0.00243
pop of  1O 4pz       0.00165
pop of  1O 3dxy      0.00001
pop of  1O 3dyz      0.00110
pop of  1O 3dz^2     0.00149
pop of  1O 3dxz      0.00110
pop of  1O 3dx2-y2    0.00000
pop of  1O 4dxy      0.00005
pop of  1O 4dyz      0.00406
pop of  1O 4dz^2     0.00308
pop of  1O 4dxz      0.00406
pop of  1O 4dx2-y2    0.00000
 ** Mulliken atomic charges  **
charge of  0Ti =      0.81552
charge of  1O =     -0.81552

******** <class 'pyscf.mcscf.mc1step.CASSCF'> flags ********
CAS (5e+3e, 9o), ncore = 5, nvir = 62
max_cycle_macro = 50
max_cycle_micro = 4
conv_tol = 1e-07
conv_tol_grad = None
orbital rotation max_stepsize = 0.02
augmented hessian ah_max_cycle = 30
augmented hessian ah_conv_tol = 1e-12
augmented hessian ah_linear dependence = 1e-14
augmented hessian ah_level shift = 0
augmented hessian ah_start_tol = 2.5
augmented hessian ah_start_cycle = 3
augmented hessian ah_grad_trust_region = 3
kf_trust_region = 3
kf_interval = 4
ci_response_space = 4
ci_grad_trust_region = 3
with_dep4 0
natorb = False
canonicalization = True
sorting_mo_energy = False
chkfile = ./scratch/105849/tmp2uXDHV
max_memory 4000 MB (current use 252 MB)
internal_rotation = False

******** SHCI flags ********
executable             = /home/bamu3429/softwares/dice/Dice
mpiprefix              = srun -n20
scratchDirectory       = ./scratch/105849
integralFile           = ./FCIDUMP
configFile             = ./input.dat
outputFile             = ./output.dat
maxIter                = 6
sweep_iter             = []
sweep_epsilon          = []
nPTiter                = 0
Stochastic             = True
fullrestart            = False
restart                = False
num_thrds              = 12
memory                 = None

CASCI E = -73.2697503230465  S^2 = 2.0000000
Set conv_tol_grad to 0.000316228
macro iter 1 (7 JK  2 micro), CASSCF E = -73.2698447887769  dE = -9.446573e-05  S^2 = 2.0000000
               |grad[o]|=0.000149  |grad[c]|= None  |ddm|=0.0141
macro iter 2 (21 JK  4 micro), CASSCF E = -73.2771132655703  dE = -0.0072684768  S^2 = 2.0000000
               |grad[o]|=0.000732  |grad[c]|= None  |ddm|=0.00998
macro iter 3 (21 JK  4 micro), CASSCF E = -73.295858709156  dE = -0.018745444  S^2 = 2.0000000
               |grad[o]|=0.0326  |grad[c]|= None  |ddm|=0.047
macro iter 4 (21 JK  4 micro), CASSCF E = -73.3254729501354  dE = -0.029614241  S^2 = 2.0000000
               |grad[o]|=0.0499  |grad[c]|= None  |ddm|=0.0529
macro iter 5 (21 JK  4 micro), CASSCF E = -73.3790566473866  dE = -0.053583697  S^2 = 2.0000000
               |grad[o]|=0.0725  |grad[c]|= None  |ddm|=0.0449
macro iter 6 (21 JK  4 micro), CASSCF E = -73.4114796252267  dE = -0.032422978  S^2 = 2.0000000
               |grad[o]|=0.0684  |grad[c]|= None  |ddm|=0.038
macro iter 7 (21 JK  4 micro), CASSCF E = -73.4142318116779  dE = -0.0027521865  S^2 = 2.0000000
               |grad[o]|=0.0207  |grad[c]|= None  |ddm|=0.00769
macro iter 8 (21 JK  4 micro), CASSCF E = -73.4155892448554  dE = -0.0013574332  S^2 = 2.0000000
               |grad[o]|=0.00932  |grad[c]|= None  |ddm|=0.00545
macro iter 9 (15 JK  4 micro), CASSCF E = -73.4158486184553  dE = -0.0002593736  S^2 = 2.0000000
               |grad[o]|=0.00291  |grad[c]|= None  |ddm|=0.00361
macro iter 10 (15 JK  3 micro), CASSCF E = -73.4158495684275  dE = -9.4997219e-07  S^2 = 2.0000000
               |grad[o]|=0.00038  |grad[c]|= None  |ddm|=0.000653
macro iter 11 (7 JK  2 micro), CASSCF E = -73.4158518015541  dE = -2.2331266e-06  S^2 = 2.0000000
               |grad[o]|=0.000499  |grad[c]|= None  |ddm|=4.15e-05
macro iter 12 (15 JK  4 micro), CASSCF E = -73.4158487147102  dE = 3.0868439e-06  S^2 = 2.0000000
               |grad[o]|=0.00125  |grad[c]|= None  |ddm|=0.00146
macro iter 13 (20 JK  4 micro), CASSCF E = -73.4158512352477  dE = -2.5205374e-06  S^2 = 2.0000000
               |grad[o]|=0.0037  |grad[c]|= None  |ddm|=0.000773
macro iter 14 (6 JK  2 micro), CASSCF E = -73.415852362785  dE = -1.1275373e-06  S^2 = 2.0000000
               |grad[o]|=0.000477  |grad[c]|= None  |ddm|=0.000243
macro iter 15 (10 JK  4 micro), CASSCF E = -73.4158525032831  dE = -1.404981e-07  S^2 = 2.0000000
               |grad[o]|=0.000744  |grad[c]|= None  |ddm|=0.000106
macro iter 16 (6 JK  1 micro), CASSCF E = -73.4158526372153  dE = -1.339322e-07  S^2 = 2.0000000
               |grad[o]|=0.000122  |grad[c]|= None  |ddm|=9.79e-05
macro iter 17 (3 JK  1 micro), CASSCF E = -73.4158526410973  dE = -3.8819934e-09  S^2 = 2.0000000
               |grad[o]|=0.000141  |grad[c]|= None  |ddm|=    0
1-step CASSCF converged in 17 macro (251 JK 55 micro) steps
CASSCF canonicalization
CASSCF energy = -73.4158526410973


--------------------------------------------------
                 ICMPSPT CALCULATION              
--------------------------------------------------

Perturbation type: MRLCC
With fully internally contracted scheme
With third order correction

Preparing necessary RDMs
......production of RDMs took      69.10 sec
Reading binary 4RDM from DICE
......reading the RDM took         30.03 sec

(GOOD) Trace 4RDM:   1680.0 =    8*    7*    6*    5
(GOOD) Trace 3RDM:    336.0 =    8*    7*    6
(GOOD) Trace 2RDM:     56.0 =    8*    7
(GOOD) Trace 1RDM:      8.0 =    8

Producing the integrals
......production of INT took      41.16 sec

Energy_core =  -81.08154460
Energy      =  -73.41585264

WARNING: Have to use natural orbitals from CAASCF
         offdiagonal elements:    0.65032428

Basic ingredients written to int/
......savings of INGREDIENTS took      42.49 sec

Second-order:
perturber CCVV --        -0.123582689
perturber CCAV --        -0.074949789
perturber ACVV --        -0.083529612
perturber CCAA --        -0.027583545
perturber AAVV --        -0.076754103
perturber CAAV --        -0.098723402
perturber AAAV --        -0.024681275
perturber AAAC --        -0.004896815
Total:                   -0.514701230

Third-order:              0.000418349

Total PT       --        -0.514282881

