 &FCI NORB=6 ,NELEC=7 ,MS2=5,
  ORBSYM=1,1,1,1,1,1,
  ISYM=1,
 &END
  2.700020259931e-01    1  1  1  1
 -5.269578770498e-10    2  1  1  1
  6.967482098646e-03    2  1  2  1
  3.463863664168e-01    2  2  1  1
 -2.036415731853e-05    2  2  2  1
  8.660998373372e-01    2  2  2  2
  2.330061898050e-09    3  1  1  1
  2.952299028419e-05    3  1  2  2
  6.967482098853e-03    3  1  3  1
  2.951030266121e-05    3  2  2  1
  1.582444020784e-12    3  2  2  2
 -6.774651797847e-06    3  2  3  1
  1.872814428038e-02    3  2  3  2
  3.463863664163e-01    3  3  1  1
 -6.777531225129e-06    3  3  2  1
  8.286435487720e-01    3  3  2  2
  8.849733388998e-05    3  3  3  1
  1.581187725039e-12    3  3  3  2
  8.660998373282e-01    3  3  3  3
 -7.941712105277e-12    4  1  1  1
 -9.642560974330e-07    4  1  2  2
 -8.432067353424e-08    4  1  3  2
 -4.774528751029e-07    4  1  3  3
  6.967481569564e-03    4  1  4  1
 -9.642148055953e-07    4  2  2  1
 -8.432105432107e-08    4  2  3  1
  3.096856355382e-06    4  2  3  2
  5.416596615725e-07    4  2  3  3
 -2.729411729777e-04    4  2  4  1
  3.388074894957e-02    4  2  4  2
 -8.432096338712e-08    4  3  2  1
 -6.193712955282e-06    4  3  2  2
 -4.774096188312e-07    4  3  3  1
 -2.708297962560e-07    4  3  3  2
  1.134435368879e-03    4  3  4  1
  8.774913845013e-05    4  3  4  2
  3.352821265610e-02    4  3  4  3
  3.463863682203e-01    4  4  1  1
 -2.729463797518e-04    4  4  2  1
  7.983383455509e-01    4  4  2  2
  1.134457701646e-03    4  4  3  1
 -1.754981982864e-04    4  4  3  2
  7.990434178234e-01    4  4  3  3
  7.267396419334e-07    4  4  4  1
  8.660998496003e-01    4  4  4  4
 -1.340596343247e-07    5  1  2  2
  2.522918500371e-07    5  1  3  2
  4.043764027581e-08    5  1  3  3
  1.149474750322e-03    5  1  4  2
  2.763969328819e-04    5  1  4  3
 -3.018244287021e-08    5  1  4  4
  6.967481535898e-03    5  1  5  1
 -1.340554557832e-07    5  2  2  1
  2.522945709424e-07    5  2  3  1
 -3.424919063416e-07    5  2  3  2
  6.728866976259e-06    5  2  3  3
  1.149475316853e-03    5  2  4  1
  8.475072042080e-05    5  2  4  2
  1.500537956502e-02    5  2  4  3
  6.084152105925e-06    5  2  4  4
  2.797280651542e-04    5  2  5  1
  3.392149521164e-02    5  2  5  2
  2.522913670701e-07    5  3  2  1
  6.849838877745e-07    5  3  2  2
  4.044257883414e-08    5  3  3  1
 -3.364433366793e-06    5  3  3  2
  2.763970609743e-04    5  3  4  1
 -1.535352172221e-02    5  3  4  2
 -8.861246364535e-05    5  3  4  3
  1.313035382985e-06    5  3  4  4
 -1.163946835491e-03    5  3  5  1
 -8.557290871838e-05    5  3  5  2
  3.426506826161e-02    5  3  5  3
  1.149485131944e-03    5  4  2  1
 -1.695013630372e-04    5  4  2  2
  2.763994252773e-04    5  4  3  1
  3.481419959773e-04    5  4  3  2
  1.772248449612e-04    5  4  3  3
 -3.017729824748e-08    5  4  4  1
 -3.042075104958e-06    5  4  4  2
 -6.565174427541e-07    5  4  4  3
  7.336747032604e-07    5  4  5  1
  9.338438059389e-07    5  4  5  2
 -6.095819916645e-06    5  4  5  3
  3.390136911095e-02    5  4  5  4
  3.463863683093e-01    5  5  1  1
  2.797277186644e-04    5  5  2  1
  7.982568533490e-01    5  5  2  2
 -1.163944716040e-03    5  5  3  1
  1.711457359548e-04    5  5  3  2
  7.975697075794e-01    5  5  3  3
  7.336233170663e-07    5  5  4  1
 -1.867687178600e-06    5  5  4  2
  1.219163853759e-05    5  5  4  3
  7.982971116627e-01    5  5  4  4
  1.210922492371e-07    5  5  5  1
  8.660998501690e-01    5  5  5  5
 -3.305180730432e-08    6  1  1  1
 -1.364844609302e-03    6  1  2  2
 -4.259012042553e-12    6  1  3  1
 -5.867435950277e-07    6  1  3  2
 -1.362428327060e-03    6  1  3  3
  9.249411202119e-08    6  1  4  2
 -4.199514341257e-07    6  1  4  3
  7.084325216082e-04    6  1  4  4
 -8.321883703337e-07    6  1  5  2
 -1.300476540683e-07    6  1  5  3
  2.604873311378e-07    6  1  5  4
  6.559833688941e-04    6  1  5  5
  6.967481366935e-03    6  1  6  1
 -1.364677919857e-03    6  2  2  1
 -6.367561356128e-11    6  2  2  2
 -5.867492609578e-07    6  2  3  1
 -4.375522255406e-04    6  2  3  2
 -2.012523165950e-04    6  2  3  3
  9.249448287252e-08    6  2  4  1
  3.649129830017e-06    6  2  4  2
 -1.986005565902e-07    6  2  4  3
  4.195594124340e-03    6  2  4  4
 -8.321927110921e-07    6  2  5  1
  4.278987000417e-07    6  2  5  2
  7.030878306514e-06    6  2  5  3
 -1.704198984835e-02    6  2  5  4
 -3.994341813672e-03    6  2  5  5
  2.034803667571e-05    6  2  6  1
  3.895296837522e-02    6  2  6  2
 -2.064664647085e-12    6  3  1  1
 -5.867491639095e-07    6  3  2  1
  8.751047318285e-04    6  3  2  2
 -1.362261614225e-03    6  3  3  1
  1.006261266019e-04    6  3  3  2
  2.803928303886e-10    6  3  3  3
 -4.199521745894e-07    6  3  4  1
  7.862953328476e-07    6  3  4  2
  1.903162251576e-06    6  3  4  3
 -1.746690271123e-02    6  3  4  4
 -1.300483526224e-07    6  3  5  1
 -8.571770460575e-06    6  3  5  2
 -9.167059378583e-08    6  3  5  3
 -4.097742871803e-03    6  3  5  4
  1.659179801328e-02    6  3  5  5
 -8.847908350757e-05    6  3  6  1
 -2.176233379661e-06    6  3  6  2
  3.896193163407e-02    6  3  6  3
  9.249492266552e-08    6  4  2  1
 -7.298263140374e-06    6  4  2  2
 -4.199551504813e-07    6  4  3  1
 -5.876949934388e-07    6  4  3  2
 -3.806326773766e-06    6  4  3  3
  7.086174900476e-04    6  4  4  1
 -2.097797353940e-03    6  4  4  2
  8.733452567391e-03    6  4  4  3
  2.604919465122e-07    6  4  5  1
  8.849236186035e-03    6  4  5  2
  2.124359305387e-03    6  4  5  3
 -3.362282517816e-07    6  4  5  4
  1.110458795881e-05    6  4  5  5
 -1.885509828310e-08    6  4  6  1
 -6.630137346505e-07    6  4  6  2
  2.998962604225e-06    6  4  6  3
  2.417302970400e-02    6  4  6  4
 -8.321956295247e-07    6  5  2  1
 -8.557978622101e-07    6  5  2  2
 -1.300487837795e-07    6  5  3  1
  1.540892837806e-06    6  5  3  2
  1.833412113579e-07    6  5  3  3
  2.604918990962e-07    6  5  4  1
  8.192756211848e-03    6  5  4  2
  1.973384179420e-03    6  5  4  3
  6.724564625108e-07    6  5  4  4
  6.561677914052e-04    6  5  5  1
  1.997171227078e-03    6  5  5  2
 -8.295900339842e-03    6  5  5  3
 -5.552293133289e-06    6  5  5  4
  2.691132647788e-09    6  5  6  1
  6.406507831477e-06    6  5  6  2
  9.990093325673e-07    6  5  6  3
  3.861742291854e-06    6  5  6  4
  2.339542802820e-02    6  5  6  5
  3.463863688853e-01    6  6  1  1
  2.034541368373e-05    6  6  2  1
  7.881939030237e-01    6  6  2  2
 -8.846753044499e-05    6  6  3  1
  4.352457691844e-06    6  6  3  2
  7.881759765455e-01    6  6  3  3
 -1.890379407765e-08    6  6  4  1
  1.326027959155e-06    6  6  4  2
 -5.997927537832e-06    6  6  4  3
  8.177537956937e-01    6  6  4  4
  2.686081661777e-09    6  6  5  1
 -1.281301904764e-05    6  6  5  2
 -1.998019213820e-06    6  6  5  3
 -7.723483697017e-06    6  6  5  4
  8.193089990969e-01    6  6  5  5
  1.361907415312e-03    6  6  6  1
  5.833274549963e-11    6  6  6  2
 -2.511189261380e-10    6  6  6  3
  8.660998583444e-01    6  6  6  6
 -2.235090503490e+00    1  1  0  0
  1.370728872411e-08    2  1  0  0
 -4.403486910275e+00    2  2  0  0
 -6.039054484988e-08    3  1  0  0
  1.227135702275e-12    3  2  0  0
 -4.403486910288e+00    3  3  0  0
  2.271425010970e-10    4  1  0  0
  1.508064603013e-12    4  3  0  0
 -4.403486934964e+00    4  4  0  0
  2.386482699242e-11    5  1  0  0
  1.726022928594e-12    5  4  0  0
 -4.403486936129e+00    5  5  0  0
  8.704209094677e-07    6  1  0  0
  8.653830850212e-12    6  2  0  0
 -4.851417934020e-11    6  3  0  0
  1.148189895921e-12    6  4  0  0
 -4.403486944423e+00    6  6  0  0
    -88.448513884561   0  0  0  0
