#INFO: **** input file is /projects/bamu3429/BENCHMARK/fresh_atoms/MRPT/vqz/atoms/Mn_0/mrpt.py ****
import json
from pyscf import gto,scf,mcscf, fci, lo, ci, cc
from pyscf.scf import ROHF, UHF,ROKS
import numpy as np
import pandas as pd

# THIS IS WERE IT STARTS ====================================

df=json.load(open("../../../trail.json"))

spins={'Sc':1, 'Ti':2, 'V':3, 'Cr':6, 'Mn':5, 'Fe':4, 'Cu':1}

nd={'Sc':(1,0), 'Ti':(2,0), 'V':(3,0), 'Cr':(5,0), 'Mn':(5,0), 'Fe':(5,1), 'Cu':(5,5)}

cas={'Sc':3, 'Ti':4, 'V':5, 'Cr':6, 'Mn':7, 'Fe':8, 'Cu':11}

datacsv={}
for nm in ['atom','charge','method','basis','pseudopotential','hf',
           'totalenergy','totalenergy-stocherr','totalenergy-syserr']:
  datacsv[nm]=[]

basis='vqz'
el='Mn'
charge=0

mol=gto.Mole()
mol.ecp={}
mol.basis={}
mol.ecp[el]=gto.basis.parse_ecp(df[el]['ecp'])
mol.basis[el]=gto.basis.parse(df[el][basis])
mol.charge=charge
if el == 'Cr' or el == 'Cu':
  mol.spin=spins[el]-charge
else:
  mol.spin=spins[el]+charge
mol.build(atom="%s 0. 0. 0."%el,verbose=4)

m=ROHF(mol)
m.level_shift=1000.0
dm=m.from_chk("../../../../HF/atoms/"+el+basis+str(charge)+".chk")
hf=m.kernel(dm)
m.analyze()

from pyscf.shciscf import shci
mc = shci.SHCISCF(m, 6, cas[el]-charge)
#mc.fcisolver.conv_tol = 1e-14
mc.fcisolver.mpiprefix="mpirun -np 28"
mc.fcisolver.num_thrds=12
mc.verbose = 4
cas=mc.kernel()[0]
 
from pyscf.icmpspt import icmpspt
pt=icmpspt.icmpspt(mc,rdmM=500, PTM=1000,\
                          pttype="MRLCC",\
                          third_order=True,\
                          fully_ic=True,\
                          do_dm4=True)

datacsv['atom'].append(el)
datacsv['charge'].append(charge)
datacsv['method'].append('MRPT')
datacsv['basis'].append(basis)
datacsv['pseudopotential'].append('trail')
datacsv['hf'].append(hf)
datacsv['totalenergy'].append(cas+pt)
datacsv['totalenergy-stocherr'].append(0.0)
datacsv['totalenergy-syserr'].append(0.0)
pd.DataFrame(datacsv).to_csv(el+".csv",index=False)

#INFO: ******************** input file end ********************


System: ('Linux', 'bnode0308.rc.int.colorado.edu', '3.10.0-514.41.1.el7.x86_64', '#1 SMP Wed Jan 17 10:26:16 EST 2018', 'x86_64', 'x86_64')  Threads 1
Python 2.7.11 (default, Mar 22 2016, 01:42:54) 
[GCC Intel(R) C++ gcc 4.8 mode]
numpy 1.11.1  scipy 0.17.1
Date: Mon Mar 26 13:35:47 2018
PySCF version 1.4b
PySCF path  /projects/bamu3429/softwares/pyscf/pyscf
GIT ORIG_HEAD a007ed0a2fbe03d40db097068519a89db937d194
GIT HEAD      ref: refs/heads/dev
GIT dev branch  c61da64dc121f43448ee07e62e4d3a4eb5ddcda8

[INPUT] VERBOSE 4
[INPUT] num atoms = 1
[INPUT] num electrons = 15
[INPUT] charge = 0
[INPUT] spin (= nelec alpha-beta = 2S) = 5
[INPUT] symmetry False subgroup None
[INPUT]  1 Mn     0.000000000000   0.000000000000   0.000000000000 AA    0.000000000000   0.000000000000   0.000000000000 Bohr
[INPUT] ---------------- BASIS SET ---------------- 
[INPUT] l, kappa, [nprim/nctr], expnt,             c_1 c_2 ...
[INPUT] Mn
[INPUT] 0    0    [12   /1   ]  41.19094709       0.0124
                                21.94503151       -0.141461
                                12.89081507       0.669584
                                8.14876869        -1.015431
                                3.94904809        0.149151
                                1.91298055        0.350677
                                1.10736282        0.627006
                                0.4793266         0.235349
                                0.22675293        -0.024214
                                0.10639652        0.017357
                                0.05000494        -0.005272
                                0.0234982         0.002181
[INPUT] 0    0    [12   /1   ]  41.19094709       -0.002036
                                21.94503151       0.02709
                                12.89081507       -0.142056
                                8.14876869        0.229945
                                3.94904809        -0.035538
                                1.91298055        -0.085336
                                1.10736282        -0.24355
                                0.4793266         -0.201798
                                0.22675293        0.098761
                                0.10639652        0.439512
                                0.05000494        0.524416
                                0.0234982         0.13192
[INPUT] 0    0    [12   /1   ]  41.19094709       -0.004856
                                21.94503151       0.092685
                                12.89081507       -0.597148
                                8.14876869        1.137589
                                3.94904809        -0.390492
                                1.91298055        -1.331371
                                1.10736282        0.125193
                                0.4793266         0.729164
                                0.22675293        0.739266
                                0.10639652        0.030588
                                0.05000494        -0.566618
                                0.0234982         -0.237417
[INPUT] 0    0    [12   /1   ]  41.19094709       -0.003183
                                21.94503151       0.098456
                                12.89081507       -0.758579
                                8.14876869        1.655936
                                3.94904809        -1.068093
                                1.91298055        -2.224521
                                1.10736282        2.10545
                                0.4793266         1.414254
                                0.22675293        -1.498426
                                0.10639652        -0.857745
                                0.05000494        0.64559
                                0.0234982         0.522893
[INPUT] 0    0    [12   /1   ]  41.19094709       -0.005669
                                21.94503151       -0.072371
                                12.89081507       1.009725
                                8.14876869        -2.847369
                                3.94904809        3.982552
                                1.91298055        -0.244007
                                1.10736282        -3.839613
                                0.4793266         2.775896
                                0.22675293        0.937737
                                0.10639652        -2.238269
                                0.05000494        0.096996
                                0.0234982         0.900173
[INPUT] 0    0    [1    /1   ]  0.0234982            1
[INPUT] 0    0    [1    /1   ]  0.01104221           1
[INPUT] 1    0    [12   /1   ]  60.1913049        0.000757
                                31.1792672        -0.006538
                                16.24276866       0.042902
                                8.80021485        -0.164602
                                5.33575038        0.099387
                                3.0325056         0.217723
                                1.63861968        0.443669
                                0.80258711        0.32785
                                0.40627833        0.098641
                                0.17382998        0.011768
                                0.07306386        -0.000703
                                0.03071005        0.000403
[INPUT] 1    0    [12   /1   ]  60.1913049        -0.000118
                                31.1792672        0.001208
                                16.24276866       -0.009122
                                8.80021485        0.038924
                                5.33575038        -0.027473
                                3.0325056         -0.058215
                                1.63861968        -0.124371
                                0.80258711        -0.107355
                                0.40627833        0.040741
                                0.17382998        0.350952
                                0.07306386        0.523294
                                0.03071005        0.234255
[INPUT] 1    0    [12   /1   ]  60.1913049        -0.000139
                                31.1792672        -0.00242
                                16.24276866       0.038793
                                8.80021485        -0.243459
                                5.33575038        0.194569
                                3.0325056         0.842216
                                1.63861968        0.066699
                                0.80258711        -0.892913
                                0.40627833        -0.392543
                                0.17382998        0.60286
                                0.07306386        0.393012
                                0.03071005        0.007885
[INPUT] 1    0    [12   /1   ]  60.1913049        -0.000398
                                31.1792672        -0.002431
                                16.24276866       0.06499
                                8.80021485        -0.561344
                                5.33575038        1.083365
                                3.0325056         0.923337
                                1.63861968        -1.661685
                                0.80258711        -0.597311
                                0.40627833        1.567186
                                0.17382998        -0.097993
                                0.07306386        -0.65828
                                0.03071005        -0.003976
[INPUT] 1    0    [12   /1   ]  60.1913049        -0.006402
                                31.1792672        0.03287
                                16.24276866       -0.058877
                                8.80021485        -0.69608
                                5.33575038        3.097068
                                3.0325056         -2.128644
                                1.63861968        -1.540559
                                0.80258711        2.934562
                                0.40627833        -1.1907
                                0.17382998        -0.89455
                                0.07306386        0.961804
                                0.03071005        -0.004278
[INPUT] 1    0    [1    /1   ]  0.03071005           1
[INPUT] 1    0    [1    /1   ]  0.01290798           1
[INPUT] 2    0    [10   /1   ]  52.56900844       0.000307
                                23.81654224       -0.007961
                                11.32693504       0.114253
                                4.99176622        0.164228
                                2.46839125        0.269996
                                1.15974738        0.320627
                                0.53124091        0.273188
                                0.24220121        0.161357
                                0.11248934        0.058244
                                0.05201371        0.009574
[INPUT] 2    0    [10   /1   ]  52.56900844       0.000337
                                23.81654224       0.004956
                                11.32693504       -0.107195
                                4.99176622        -0.206571
                                2.46839125        -0.366595
                                1.15974738        -0.092317
                                0.53124091        0.265958
                                0.24220121        0.408928
                                0.11248934        0.279128
                                0.05201371        0.068593
[INPUT] 2    0    [10   /1   ]  52.56900844       -0.002325
                                23.81654224       0.003859
                                11.32693504       0.104269
                                4.99176622        0.404616
                                2.46839125        0.341311
                                1.15974738        -0.607186
                                0.53124091        -0.484076
                                0.24220121        0.257285
                                0.11248934        0.465281
                                0.05201371        0.134253
[INPUT] 2    0    [10   /1   ]  52.56900844       -0.001087
                                23.81654224       -0.007049
                                11.32693504       0.271774
                                4.99176622        0.883987
                                2.46839125        -0.93145
                                1.15974738        -0.608336
                                0.53124091        0.93983
                                0.24220121        0.109829
                                0.11248934        -0.447095
                                0.05201371        -0.157185
[INPUT] 2    0    [1    /1   ]  0.05201371           1
[INPUT] 2    0    [1    /1   ]  0.02405051           1
[INPUT] 3    0    [1    /1   ]  4.240921             1
[INPUT] 3    0    [1    /1   ]  1.457367             1
[INPUT] 3    0    [1    /1   ]  0.500814             1
[INPUT] 3    0    [1    /1   ]  0.17210123           1
[INPUT] 4    0    [1    /1   ]  4.129721             1
[INPUT] 4    0    [1    /1   ]  1.439666             1
[INPUT] 4    0    [1    /1   ]  0.50188333           1
[INPUT] 5    0    [1    /1   ]  3.445174             1
[INPUT] 5    0    [1    /1   ]  1.20102538           1
nuclear repulsion = 0
number of shells = 29
number of NR pGTOs = 535
number of NR cGTOs = 135
basis = {'Mn': [[0, [41.19094709, 0.0124], [21.94503151, -0.141461], [12.89081507, 0.669584], [8.14876869, -1.015431], [3.94904809, 0.149151], [1.91298055, 0.350677], [1.10736282, 0.627006], [0.4793266, 0.235349], [0.22675293, -0.024214], [0.10639652, 0.017357], [0.05000494, -0.005272], [0.0234982, 0.002181]], [0, [41.19094709, -0.002036], [21.94503151, 0.02709], [12.89081507, -0.142056], [8.14876869, 0.229945], [3.94904809, -0.035538], [1.91298055, -0.085336], [1.10736282, -0.24355], [0.4793266, -0.201798], [0.22675293, 0.098761], [0.10639652, 0.439512], [0.05000494, 0.524416], [0.0234982, 0.13192]], [0, [41.19094709, -0.004856], [21.94503151, 0.092685], [12.89081507, -0.597148], [8.14876869, 1.137589], [3.94904809, -0.390492], [1.91298055, -1.331371], [1.10736282, 0.125193], [0.4793266, 0.729164], [0.22675293, 0.739266], [0.10639652, 0.030588], [0.05000494, -0.566618], [0.0234982, -0.237417]], [0, [41.19094709, -0.003183], [21.94503151, 0.098456], [12.89081507, -0.758579], [8.14876869, 1.655936], [3.94904809, -1.068093], [1.91298055, -2.224521], [1.10736282, 2.10545], [0.4793266, 1.414254], [0.22675293, -1.498426], [0.10639652, -0.857745], [0.05000494, 0.64559], [0.0234982, 0.522893]], [0, [41.19094709, -0.005669], [21.94503151, -0.072371], [12.89081507, 1.009725], [8.14876869, -2.847369], [3.94904809, 3.982552], [1.91298055, -0.244007], [1.10736282, -3.839613], [0.4793266, 2.775896], [0.22675293, 0.937737], [0.10639652, -2.238269], [0.05000494, 0.096996], [0.0234982, 0.900173]], [0, [0.0234982, 1.0]], [0, [0.01104221, 1.0]], [1, [60.1913049, 0.000757], [31.1792672, -0.006538], [16.24276866, 0.042902], [8.80021485, -0.164602], [5.33575038, 0.099387], [3.0325056, 0.217723], [1.63861968, 0.443669], [0.80258711, 0.32785], [0.40627833, 0.098641], [0.17382998, 0.011768], [0.07306386, -0.000703], [0.03071005, 0.000403]], [1, [60.1913049, -0.000118], [31.1792672, 0.001208], [16.24276866, -0.009122], [8.80021485, 0.038924], [5.33575038, -0.027473], [3.0325056, -0.058215], [1.63861968, -0.124371], [0.80258711, -0.107355], [0.40627833, 0.040741], [0.17382998, 0.350952], [0.07306386, 0.523294], [0.03071005, 0.234255]], [1, [60.1913049, -0.000139], [31.1792672, -0.00242], [16.24276866, 0.038793], [8.80021485, -0.243459], [5.33575038, 0.194569], [3.0325056, 0.842216], [1.63861968, 0.066699], [0.80258711, -0.892913], [0.40627833, -0.392543], [0.17382998, 0.60286], [0.07306386, 0.393012], [0.03071005, 0.007885]], [1, [60.1913049, -0.000398], [31.1792672, -0.002431], [16.24276866, 0.06499], [8.80021485, -0.561344], [5.33575038, 1.083365], [3.0325056, 0.923337], [1.63861968, -1.661685], [0.80258711, -0.597311], [0.40627833, 1.567186], [0.17382998, -0.097993], [0.07306386, -0.65828], [0.03071005, -0.003976]], [1, [60.1913049, -0.006402], [31.1792672, 0.03287], [16.24276866, -0.058877], [8.80021485, -0.69608], [5.33575038, 3.097068], [3.0325056, -2.128644], [1.63861968, -1.540559], [0.80258711, 2.934562], [0.40627833, -1.1907], [0.17382998, -0.89455], [0.07306386, 0.961804], [0.03071005, -0.004278]], [1, [0.03071005, 1.0]], [1, [0.01290798, 1.0]], [2, [52.56900844, 0.000307], [23.81654224, -0.007961], [11.32693504, 0.114253], [4.99176622, 0.164228], [2.46839125, 0.269996], [1.15974738, 0.320627], [0.53124091, 0.273188], [0.24220121, 0.161357], [0.11248934, 0.058244], [0.05201371, 0.009574]], [2, [52.56900844, 0.000337], [23.81654224, 0.004956], [11.32693504, -0.107195], [4.99176622, -0.206571], [2.46839125, -0.366595], [1.15974738, -0.092317], [0.53124091, 0.265958], [0.24220121, 0.408928], [0.11248934, 0.279128], [0.05201371, 0.068593]], [2, [52.56900844, -0.002325], [23.81654224, 0.003859], [11.32693504, 0.104269], [4.99176622, 0.404616], [2.46839125, 0.341311], [1.15974738, -0.607186], [0.53124091, -0.484076], [0.24220121, 0.257285], [0.11248934, 0.465281], [0.05201371, 0.134253]], [2, [52.56900844, -0.001087], [23.81654224, -0.007049], [11.32693504, 0.271774], [4.99176622, 0.883987], [2.46839125, -0.93145], [1.15974738, -0.608336], [0.53124091, 0.93983], [0.24220121, 0.109829], [0.11248934, -0.447095], [0.05201371, -0.157185]], [2, [0.05201371, 1.0]], [2, [0.02405051, 1.0]], [3, [4.240921, 1.0]], [3, [1.457367, 1.0]], [3, [0.500814, 1.0]], [3, [0.17210123, 1.0]], [4, [4.129721, 1.0]], [4, [1.439666, 1.0]], [4, [0.50188333, 1.0]], [5, [3.445174, 1.0]], [5, [1.20102538, 1.0]]]}
ecp = {'Mn': [10, [[-1, [[], [[18.43432244, 15.0]], [[12.74175213, 31301.56494509], [11.67410914, -4576.3546318], [12.90376156, -26766.73507377], [4.97171871, -4.09339906]], [[8.79264819, 276.51483655]]]], [0, [[], [], [[13.56187871, 2771.78238977], [9.44812535, 12553.69429672], [10.76503846, 1886.79316638], [11.65345594, -9260.55332402], [8.48073002, -8943.95003535], [6.96707028, 1041.73211249]], []]], [1, [[], [], [[12.71342918, -23181.32761179], [18.03174513, 111577.22220216], [16.6827906, -42399.84416473], [13.18867124, 16025.79106608], [18.42861128, -76264.60573764], [12.90928974, 14270.47832347]], []]], [2, [[], [], [[8.13384228, -382.83904013], [14.28699222, 5676.99013005], [11.14406629, 35338.03440844], [11.37674978, -38881.44458388], [18.25818233, 3550.6602642], [17.73146307, -5317.47975296]], []]]]]}
CPU time:         0.79


******** <class 'pyscf.scf.rohf.ROHF'> flags ********
method = ROHF
initial guess = minao
damping factor = 0
level shift factor = 1000.0
DIIS = <class 'pyscf.scf.diis.CDIIS'>
DIIS start cycle = 1
DIIS space = 8
SCF tol = 1e-09
SCF gradient tol = None
max. SCF cycles = 50
direct_scf = True
direct_scf_tol = 1e-13
chkfile to save SCF result = /projects/bamu3429/BENCHMARK/fresh_atoms/MRPT/vqz/atoms/Mn_0/tmpz3tLTC
max_memory 4000 MB (current use 82 MB)
num. doubly occ = 5  num. singly occ = 5
Set gradient conv threshold to 3.16228e-05
init E= -103.517227970905
  HOMO = 499.866060455643  LUMO = 1000.01929971542
cycle= 1 E= -103.517227970905  delta_E= -7.11e-14  |g|= 9.3e-06  |ddm|= 3.9e-08
  HOMO = -0.133939549719871  LUMO = 0.0192997154132958
Extra cycle  E= -103.517227970915  delta_E= -9.92e-12  |g|= 3.5e-06  |ddm|= 2.22e-05
converged SCF energy = -103.517227970915
**** MO energy ****
                Roothaan           | alpha              | beta
MO #1   energy= -4.01328525911729  | -4.23138171520018  | -3.79518880303442  occ= 2
MO #2   energy= -2.52055728399081  | -2.78547819567131  | -2.25563637231031  occ= 2
MO #3   energy= -2.5205572834863   | -2.78547819603398  | -2.25563637093863  occ= 2
MO #4   energy= -2.52055727456782  | -2.78547820423925  | -2.25563634489638  occ= 2
MO #5   energy= -0.250575319940663 | -0.267993971133818 | -0.233156668747044 occ= 2
MO #6   energy= -0.133939560686586 | -0.629731618533485 | 0.361852037931388  occ= 1
MO #7   energy= -0.133939560684841 | -0.629731618570215 | 0.361852037933824  occ= 1
MO #8   energy= -0.133939552742523 | -0.62973162143756  | 0.361852051563065  occ= 1
MO #9   energy= -0.133939552387146 | -0.629731621290421 | 0.361852052218315  occ= 1
MO #10  energy= -0.133939549719871 | -0.629731623112457 | 0.361852056732668  occ= 1
MO #11  energy= 0.0192997154132958 | 0.0179578170022291 | 0.020641613824382  occ= 0
MO #12  energy= 0.0192997154901786 | 0.0179578171556475 | 0.0206416138247109 occ= 0
MO #13  energy= 0.0192997169014876 | 0.0179578199309255 | 0.0206416138720534 occ= 0
MO #14  energy= 0.0232457455360527 | 0.0225644864712542 | 0.0239270046008607 occ= 0
MO #15  energy= 0.063640731730919  | 0.0599187355964425 | 0.0673627278653913 occ= 0
MO #16  energy= 0.0636407317497087 | 0.0599187358299465 | 0.0673627276694685 occ= 0
MO #17  energy= 0.0636407317633239 | 0.0599187397680837 | 0.0673627237585615 occ= 0
MO #18  energy= 0.0725677976696291 | 0.0723447414052886 | 0.0727908593737053 occ= 0
MO #19  energy= 0.0725677976717032 | 0.072344741407412  | 0.072790859376005  occ= 0
MO #20  energy= 0.0725678003971385 | 0.0723447441937248 | 0.0727908620889151 occ= 0
MO #21  energy= 0.0725678005484501 | 0.0723447443470347 | 0.0727908622336054 occ= 0
MO #22  energy= 0.0725678014020764 | 0.0723447452243951 | 0.0727908631006172 occ= 0
MO #23  energy= 0.186158486693156  | 0.179601309424694  | 0.192715663961624  occ= 0
MO #24  energy= 0.221181122543657  | 0.217198270859945  | 0.225164010604488  occ= 0
MO #25  energy= 0.221181122551576  | 0.217198270866719  | 0.225164010608722  occ= 0
MO #26  energy= 0.221181128864933  | 0.217198277976946  | 0.225164016781321  occ= 0
MO #27  energy= 0.22118112924636   | 0.217198278382527  | 0.225164017102427  occ= 0
MO #28  energy= 0.221181131145072  | 0.217198280592866  | 0.225164019094847  occ= 0
MO #29  energy= 0.24484895641609   | 0.233228884616038  | 0.256469028216139  occ= 0
MO #30  energy= 0.244848956675911  | 0.23322888535886   | 0.256469027992965  occ= 0
MO #31  energy= 0.244848961056612  | 0.233228898965717  | 0.2564690231475    occ= 0
MO #32  energy= 0.614074054899042  | 0.598587431254607  | 0.62956067854348   occ= 0
MO #33  energy= 0.648348305655474  | 0.642941791156169  | 0.65375482015478   occ= 0
MO #34  energy= 0.648348305655597  | 0.642941791156294  | 0.6537548201549    occ= 0
MO #35  energy= 0.648348317750147  | 0.642941805167595  | 0.653754830332704  occ= 0
MO #36  energy= 0.64834831777584   | 0.642941805196052  | 0.653754830355637  occ= 0
MO #37  energy= 0.648348324667741  | 0.642941813204846  | 0.653754836130633  occ= 0
MO #38  energy= 0.648348325444856  | 0.642941814095774  | 0.653754836793937  occ= 0
MO #39  energy= 0.648348327505768  | 0.642941816497333  | 0.653754838514202  occ= 0
MO #40  energy= 0.762161940361783  | 0.724914712314885  | 0.799409565648584  occ= 0
MO #41  energy= 0.762161940389033  | 0.724914712332946  | 0.799409565657854  occ= 0
MO #42  energy= 0.762161947273851  | 0.724914724384624  | 0.79940957048783   occ= 0
MO #43  energy= 0.762161947838263  | 0.724914725127413  | 0.799409570813599  occ= 0
MO #44  energy= 0.762161949543232  | 0.724914728740612  | 0.799409572210391  occ= 0
MO #45  energy= 1.25175127861354   | 1.211165071217     | 1.29233748601008   occ= 0
MO #46  energy= 1.2517512795168    | 1.21116507261996   | 1.29233748641363   occ= 0
MO #47  energy= 1.25175129583178   | 1.21116509890118   | 1.29233749276237   occ= 0
MO #48  energy= 1.94326326638775   | 1.89475913899708   | 1.99176739377843   occ= 0
MO #49  energy= 1.94326326638789   | 1.89475913899722   | 1.99176739377855   occ= 0
MO #50  energy= 1.94326328034928   | 1.89475915871791   | 1.99176740198065   occ= 0
MO #51  energy= 1.94326328037949   | 1.89475915875602   | 1.99176740200295   occ= 0
MO #52  energy= 1.94326328833822   | 1.89475917005384   | 1.9917674066226    occ= 0
MO #53  energy= 1.94326328925127   | 1.89475917129702   | 1.99176740720552   occ= 0
MO #54  energy= 1.94326329162846   | 1.89475917469182   | 1.9917674085651    occ= 0
MO #55  energy= 2.34025674914604   | 2.32524533675471   | 2.35526816153737   occ= 0
MO #56  energy= 2.34025674914606   | 2.32524533675473   | 2.35526816153739   occ= 0
MO #57  energy= 2.34025676276781   | 2.3252453533766    | 2.35526817215903   occ= 0
MO #58  energy= 2.34025676276861   | 2.32524535337748   | 2.35526817215975   occ= 0
MO #59  energy= 2.34025677245032   | 2.32524536521402   | 2.35526817968661   occ= 0
MO #60  energy= 2.34025677251572   | 2.32524536528974   | 2.3552681797417    occ= 0
MO #61  energy= 2.34025677782898   | 2.32524537180541   | 2.35526818385256   occ= 0
MO #62  energy= 2.3402567788948    | 2.32524537308085   | 2.35526818470876   occ= 0
MO #63  energy= 2.34025678036143   | 2.32524537488822   | 2.35526818583465   occ= 0
MO #64  energy= 2.43219794983305   | 2.38529853094494   | 2.47909736872113   occ= 0
MO #65  energy= 3.03136078549785   | 2.94253689827841   | 3.12018469106849   occ= 0
MO #66  energy= 3.03136078551684   | 2.94253689829921   | 3.12018469107756   occ= 0
MO #67  energy= 3.03136079151569   | 2.94253690516956   | 3.12018469753838   occ= 0
MO #68  energy= 3.03136079195466   | 2.94253690566353   | 3.12018469793147   occ= 0
MO #69  energy= 3.03136079355295   | 2.94253690750083   | 3.12018469988404   occ= 0
MO #70  energy= 4.74746675748384   | 4.68520728907156   | 4.80972622589612   occ= 0
MO #71  energy= 4.74746675824003   | 4.68520728964713   | 4.80972622683293   occ= 0
MO #72  energy= 4.74746677174525   | 4.68520729960318   | 4.80972624388733   occ= 0
MO #73  energy= 5.14483807670269   | 5.03208109445192   | 5.25759505895343   occ= 0
MO #74  energy= 5.1448380767028    | 5.03208109445209   | 5.25759505895351   occ= 0
MO #75  energy= 5.14483808372149   | 5.03208110043482   | 5.25759506700816   occ= 0
MO #76  energy= 5.14483808373969   | 5.03208110045439   | 5.25759506702498   occ= 0
MO #77  energy= 5.14483808768567   | 5.03208110373998   | 5.25759507163135   occ= 0
MO #78  energy= 5.14483808816319   | 5.03208110417106   | 5.25759507215531   occ= 0
MO #79  energy= 5.1448380893275    | 5.0320811051204    | 5.25759507353461   occ= 0
MO #80  energy= 6.77201454636615   | 6.74488617714341   | 6.79914291558886   occ= 0
MO #81  energy= 6.77201454636616   | 6.74488617714342   | 6.79914291558887   occ= 0
MO #82  energy= 6.77201455558142   | 6.7448861885635    | 6.79914292259933   occ= 0
MO #83  energy= 6.77201455558142   | 6.74488618856352   | 6.79914292259934   occ= 0
MO #84  energy= 6.77201456273978   | 6.74488619744376   | 6.79914292803579   occ= 0
MO #85  energy= 6.77201456274164   | 6.74488619744583   | 6.79914292803747   occ= 0
MO #86  energy= 6.77201456779474   | 6.74488620372358   | 6.79914293186588   occ= 0
MO #87  energy= 6.77201456788013   | 6.74488620382276   | 6.7991429319375    occ= 0
MO #88  energy= 6.77201457052381   | 6.7448862071222    | 6.79914293392542   occ= 0
MO #89  energy= 6.77201457139428   | 6.74488620817021   | 6.79914293461835   occ= 0
MO #90  energy= 6.77201457204968   | 6.74488620899601   | 6.79914293510335   occ= 0
MO #91  energy= 6.9984077876114    | 6.9409449709342    | 7.05587060428861   occ= 0
MO #92  energy= 6.99840778761142   | 6.94094497093421   | 7.05587060428862   occ= 0
MO #93  energy= 6.99840779519496   | 6.94094498019095   | 7.055870610199     occ= 0
MO #94  energy= 6.99840779519544   | 6.94094498019147   | 7.0558706101994    occ= 0
MO #95  energy= 6.9984078005858    | 6.9409449867695    | 7.05587061440209   occ= 0
MO #96  energy= 6.99840780062433   | 6.94094498681422   | 7.05587061443445   occ= 0
MO #97  energy= 6.99840780357553   | 6.94094499042246   | 7.0558706167286    occ= 0
MO #98  energy= 6.99840780418691   | 6.94094499114962   | 7.05587061722419   occ= 0
MO #99  energy= 6.99840780499701   | 6.94094499214476   | 7.05587061784928   occ= 0
MO #100 energy= 9.17067288119383   | 9.09280810943864   | 9.24853765480889   occ= 0
MO #101 energy= 9.17067288119968   | 9.09280810944874   | 9.24853765481033   occ= 0
MO #102 energy= 9.17067288505234   | 9.09280810908017   | 9.24853766289615   occ= 0
MO #103 energy= 9.17067288525495   | 9.09280810911375   | 9.24853766326756   occ= 0
MO #104 energy= 9.17067288640142   | 9.09280810877655   | 9.24853766590392   occ= 0
MO #105 energy= 9.52984721951524   | 9.46167305535237   | 9.59802138367811   occ= 0
MO #106 energy= 13.9294081648539   | 13.8246589235287   | 14.0341574061792   occ= 0
MO #107 energy= 13.929408164854    | 13.8246589235287   | 14.0341574061793   occ= 0
MO #108 energy= 13.9294081659641   | 13.8246589186587   | 14.0341574132695   occ= 0
MO #109 energy= 13.929408165966    | 13.8246589186575   | 14.0341574132745   occ= 0
MO #110 energy= 13.9294081665848   | 13.8246589157399   | 14.0341574174298   occ= 0
MO #111 energy= 13.9294081666226   | 13.8246589154559   | 14.0341574177893   occ= 0
MO #112 energy= 13.9294081668123   | 13.8246589145508   | 14.0341574190739   occ= 0
MO #113 energy= 14.2290897001689   | 14.1644933529574   | 14.2936860473803   occ= 0
MO #114 energy= 14.2290897003868   | 14.1644933527456   | 14.2936860480281   occ= 0
MO #115 energy= 14.2290897053311   | 14.1644933490366   | 14.2936860616257   occ= 0
MO #116 energy= 19.159191616099    | 19.080672731111    | 19.237710501087    occ= 0
MO #117 energy= 19.1591916160991   | 19.0806727311111   | 19.237710501087    occ= 0
MO #118 energy= 19.1591916171531   | 19.0806727287402   | 19.237710505566    occ= 0
MO #119 energy= 19.1591916171531   | 19.0806727287402   | 19.2377105055661   occ= 0
MO #120 energy= 19.1591916179222   | 19.0806727270199   | 19.2377105088245   occ= 0
MO #121 energy= 19.1591916179225   | 19.0806727270231   | 19.2377105088218   occ= 0
MO #122 energy= 19.159191618376    | 19.0806727260725   | 19.2377105106796   occ= 0
MO #123 energy= 19.1591916184058   | 19.0806727258759   | 19.2377105109357   occ= 0
MO #124 energy= 19.1591916185486   | 19.080672725619    | 19.2377105114782   occ= 0
MO #125 energy= 20.1831452155677   | 20.1276200434114   | 20.2386703877241   occ= 0
MO #126 energy= 20.1831452155678   | 20.1276200434114   | 20.2386703877241   occ= 0
MO #127 energy= 20.183145217443    | 20.1276200440485   | 20.2386703908374   occ= 0
MO #128 energy= 20.183145217443    | 20.1276200440486   | 20.2386703908374   occ= 0
MO #129 energy= 20.1831452189201   | 20.1276200445473   | 20.238670393293    occ= 0
MO #130 energy= 20.1831452189202   | 20.1276200445473   | 20.2386703932932   occ= 0
MO #131 energy= 20.1831452199789   | 20.1276200449033   | 20.2386703950545   occ= 0
MO #132 energy= 20.1831452199885   | 20.1276200449062   | 20.2386703950709   occ= 0
MO #133 energy= 20.1831452205637   | 20.1276200451005   | 20.2386703960269   occ= 0
MO #134 energy= 20.1831452207041   | 20.1276200451438   | 20.2386703962643   occ= 0
MO #135 energy= 20.1831452208576   | 20.1276200451966   | 20.2386703965187   occ= 0
 ** Mulliken pop on meta-lowdin orthogonal AOs  **
 ** Mulliken pop  **
pop of  0Mn 3s        1.99998
pop of  0Mn 4s        1.99918
pop of  0Mn 5s        0.00044
pop of  0Mn 6s        0.00019
pop of  0Mn 7s        0.00001
pop of  0Mn 8s        0.00010
pop of  0Mn 9s        0.00010
pop of  0Mn 3px       1.99993
pop of  0Mn 3py       1.99993
pop of  0Mn 3pz       1.99993
pop of  0Mn 4px       0.00005
pop of  0Mn 4py       0.00005
pop of  0Mn 4pz       0.00005
pop of  0Mn 5px       0.00001
pop of  0Mn 5py       0.00001
pop of  0Mn 5pz       0.00001
pop of  0Mn 6px       0.00001
pop of  0Mn 6py       0.00001
pop of  0Mn 6pz       0.00001
pop of  0Mn 7px       0.00000
pop of  0Mn 7py       0.00000
pop of  0Mn 7pz       0.00000
pop of  0Mn 8px       0.00000
pop of  0Mn 8py       0.00000
pop of  0Mn 8pz       0.00000
pop of  0Mn 9px       0.00000
pop of  0Mn 9py       0.00000
pop of  0Mn 9pz       0.00000
pop of  0Mn 3dxy      0.99588
pop of  0Mn 3dyz      0.99588
pop of  0Mn 3dz^2     0.99588
pop of  0Mn 3dxz      0.99588
pop of  0Mn 3dx2-y2    0.99588
pop of  0Mn 4dxy      0.00329
pop of  0Mn 4dyz      0.00329
pop of  0Mn 4dz^2     0.00329
pop of  0Mn 4dxz      0.00329
pop of  0Mn 4dx2-y2    0.00329
pop of  0Mn 5dxy      0.00025
pop of  0Mn 5dyz      0.00025
pop of  0Mn 5dz^2     0.00025
pop of  0Mn 5dxz      0.00025
pop of  0Mn 5dx2-y2    0.00025
pop of  0Mn 6dxy      0.00000
pop of  0Mn 6dyz      0.00000
pop of  0Mn 6dz^2     0.00000
pop of  0Mn 6dxz      0.00000
pop of  0Mn 6dx2-y2    0.00000
pop of  0Mn 7dxy      0.00053
pop of  0Mn 7dyz      0.00053
pop of  0Mn 7dz^2     0.00053
pop of  0Mn 7dxz      0.00053
pop of  0Mn 7dx2-y2    0.00053
pop of  0Mn 8dxy      0.00004
pop of  0Mn 8dyz      0.00004
pop of  0Mn 8dz^2     0.00004
pop of  0Mn 8dxz      0.00004
pop of  0Mn 8dx2-y2    0.00004
pop of  0Mn 4fy^3     0.00000
pop of  0Mn 4fxyz     0.00000
pop of  0Mn 4fyz^2    0.00000
pop of  0Mn 4fz^3     0.00000
pop of  0Mn 4fxz^2    0.00000
pop of  0Mn 4fzx^2    0.00000
pop of  0Mn 4fx^3     0.00000
pop of  0Mn 5fy^3     0.00000
pop of  0Mn 5fxyz     0.00000
pop of  0Mn 5fyz^2    0.00000
pop of  0Mn 5fz^3     0.00000
pop of  0Mn 5fxz^2    0.00000
pop of  0Mn 5fzx^2    0.00000
pop of  0Mn 5fx^3     0.00000
pop of  0Mn 6fy^3     0.00000
pop of  0Mn 6fxyz     0.00000
pop of  0Mn 6fyz^2    0.00000
pop of  0Mn 6fz^3     0.00000
pop of  0Mn 6fxz^2    0.00000
pop of  0Mn 6fzx^2    0.00000
pop of  0Mn 6fx^3     0.00000
pop of  0Mn 7fy^3     0.00000
pop of  0Mn 7fxyz     0.00000
pop of  0Mn 7fyz^2    0.00000
pop of  0Mn 7fz^3     0.00000
pop of  0Mn 7fxz^2    0.00000
pop of  0Mn 7fzx^2    0.00000
pop of  0Mn 7fx^3     0.00000
pop of  0Mn 5g-4      0.00000
pop of  0Mn 5g-3      0.00000
pop of  0Mn 5g-2      0.00000
pop of  0Mn 5g-1      0.00000
pop of  0Mn 5g 0      0.00000
pop of  0Mn 5g 1      0.00000
pop of  0Mn 5g 2      0.00000
pop of  0Mn 5g 3      0.00000
pop of  0Mn 5g 4      0.00000
pop of  0Mn 6g-4      0.00000
pop of  0Mn 6g-3      0.00000
pop of  0Mn 6g-2      0.00000
pop of  0Mn 6g-1      0.00000
pop of  0Mn 6g 0      0.00000
pop of  0Mn 6g 1      0.00000
pop of  0Mn 6g 2      0.00000
pop of  0Mn 6g 3      0.00000
pop of  0Mn 6g 4      0.00000
pop of  0Mn 7g-4      0.00000
pop of  0Mn 7g-3      0.00000
pop of  0Mn 7g-2      0.00000
pop of  0Mn 7g-1      0.00000
pop of  0Mn 7g 0      0.00000
pop of  0Mn 7g 1      0.00000
pop of  0Mn 7g 2      0.00000
pop of  0Mn 7g 3      0.00000
pop of  0Mn 7g 4      0.00000
pop of  0Mn 6h-5      0.00000
pop of  0Mn 6h-4      0.00000
pop of  0Mn 6h-3      0.00000
pop of  0Mn 6h-2      0.00000
pop of  0Mn 6h-1      0.00000
pop of  0Mn 6h 0      0.00000
pop of  0Mn 6h 1      0.00000
pop of  0Mn 6h 2      0.00000
pop of  0Mn 6h 3      0.00000
pop of  0Mn 6h 4      0.00000
pop of  0Mn 6h 5      0.00000
pop of  0Mn 7h-5      0.00000
pop of  0Mn 7h-4      0.00000
pop of  0Mn 7h-3      0.00000
pop of  0Mn 7h-2      0.00000
pop of  0Mn 7h-1      0.00000
pop of  0Mn 7h 0      0.00000
pop of  0Mn 7h 1      0.00000
pop of  0Mn 7h 2      0.00000
pop of  0Mn 7h 3      0.00000
pop of  0Mn 7h 4      0.00000
pop of  0Mn 7h 5      0.00000
 ** Mulliken atomic charges  **
charge of  0Mn =     -0.00000

******** <class 'pyscf.mcscf.mc1step.CASSCF'> flags ********
CAS (6e+1e, 6o), ncore = 4, nvir = 125
max_cycle_macro = 50
max_cycle_micro = 4
conv_tol = 1e-07
conv_tol_grad = None
orbital rotation max_stepsize = 0.02
augmented hessian ah_max_cycle = 30
augmented hessian ah_conv_tol = 1e-12
augmented hessian ah_linear dependence = 1e-14
augmented hessian ah_level shift = 0
augmented hessian ah_start_tol = 2.5
augmented hessian ah_start_cycle = 3
augmented hessian ah_grad_trust_region = 3
kf_trust_region = 3
kf_interval = 4
ci_response_space = 4
ci_grad_trust_region = 3
with_dep4 0
natorb = False
canonicalization = True
chkfile = ./scratch/148119/tmpE2PPZi
max_memory 4000 MB (current use 431 MB)
internal_rotation = False

******** SHCI flags ********
executable             = /home/bamu3429/softwares/dice/Dice
mpiprefix              = mpirun -np 28
scratchDirectory       = ./scratch/148119
integralFile           = ./FCIDUMP
configFile             = ./input.dat
outputFile             = ./output.dat
maxIter                = 6
sweep_iter             = []
sweep_epsilon          = []
nPTiter                = 0
Stochastic             = True
fullrestart            = False
restart                = False
num_thrds              = 12
memory                 = None

CASCI E = -103.517227970915  S^2 = 8.7500000
Set conv_tol_grad to 0.000316228
macro iter 1 (1 JK  1 micro), CASSCF E = -103.517227970915  dE = 0  S^2 = 8.7500000
               |grad[o]|=3.5e-06  |grad[c]|= None  |ddm|=    0
1-step CASSCF converged in 1 macro (1 JK 1 micro) steps
CASSCF canonicalization
CASSCF energy = -103.517227970915


--------------------------------------------------
                 ICMPSPT CALCULATION              
--------------------------------------------------

Perturbation type: MRLCC
With fully internally contracted scheme
With third order correction

Preparing necessary RDMs
......production of RDMs took       0.69 sec
Reading binary 4RDM from DICE
......reading the RDM took          1.09 sec

(GOOD) Trace 4RDM:    840.0 =    7*    6*    5*    4
(GOOD) Trace 3RDM:    210.0 =    7*    6*    5
(GOOD) Trace 2RDM:     42.0 =    7*    6
(GOOD) Trace 1RDM:      7.0 =    7

Energy_core =  -88.4485138846
Energy      =  -103.517227971

WARNING: Have to use natural orbitals from CAASCF
         offdiagonal elements: 0.824227838106

Basic ingredients wrote to int/

Second-order:
perturber CCVV --        -0.114206522
perturber CCAV --        -0.047254989
perturber ACVV --        -0.184467027
perturber CCAA --        -0.028339495
perturber AAVV --        -0.145639009
perturber CAAV --        -0.121449149
perturber AAAV --        -0.004512860
perturber AAAC --        -0.000000000
Total:                   -0.645869050

Third-order:              0.002856713

Total PT       --        -0.643012337

