 &FCI NORB=6 ,NELEC=4 ,MS2=4,
  ORBSYM=1,1,1,1,1,1,
  ISYM=1,
 &END
  6.903942830522e-01    1  1  1  1
  2.615054218109e-02    2  1  2  1
  6.306283876835e-01    2  2  1  1
  6.752544489302e-01    2  2  2  2
  2.846447020326e-10    3  1  2  1
  2.615054273396e-02    3  1  3  1
  5.996842955056e-09    3  2  1  1
  2.192695807241e-04    3  2  2  2
  2.588496884250e-02    3  2  3  2
  6.306283954833e-01    3  3  1  1
  6.239763430291e-01    3  3  2  2
 -2.192565787853e-04    3  3  3  2
  6.752544664308e-01    3  3  3  3
 -3.513859769761e-09    4  1  1  1
 -6.590508012554e-03    4  1  2  2
 -1.125175539061e-02    4  1  3  2
  6.590501526905e-03    4  1  3  3
  2.870606443372e-02    4  1  4  1
  3.695404578682e-03    4  2  2  1
  6.309043796514e-03    4  2  3  1
  1.859155908486e-02    4  2  4  2
  6.309045624633e-03    4  3  2  1
 -3.695404767720e-03    4  3  3  1
  8.068711184300e-10    4  3  4  2
  1.859156145614e-02    4  3  4  3
  6.180533263260e-01    4  4  1  1
  6.365380978505e-01    4  4  2  2
  5.107888042892e-09    4  4  3  2
  6.365381025122e-01    4  4  3  3
 -3.440360748546e-09    4  4  4  1
  6.706276221618e-01    4  4  4  4
  1.915985889832e-08    5  1  1  1
  1.796435449916e-03    5  1  2  2
  3.066966157017e-03    5  1  3  2
 -1.796400750184e-03    5  1  3  3
 -4.375547040533e-03    5  1  4  1
  1.692388530783e-08    5  1  4  4
  6.839890165367e-03    5  1  5  1
  1.248765093990e-03    5  2  2  1
  2.131993660396e-03    5  2  3  1
  1.125663641826e-03    5  2  4  2
 -5.868457181688e-09    5  2  4  3
  6.485129203888e-03    5  2  5  2
  2.131954513749e-03    5  3  2  1
 -1.248763136267e-03    5  3  3  1
 -5.961867514732e-09    5  3  4  2
  1.125642252843e-03    5  3  4  3
 -6.321972916889e-09    5  3  5  2
  6.485112041381e-03    5  3  5  3
 -2.169775720424e-02    5  4  1  1
 -1.776419420741e-02    5  4  2  2
  1.007557169377e-08    5  4  3  2
 -1.776415760716e-02    5  4  3  3
  1.103206748866e-09    5  4  4  1
 -1.701853923742e-02    5  4  4  4
  2.303405695372e-10    5  4  5  1
  7.217744835543e-03    5  4  5  4
  2.811973015899e-01    5  5  1  1
  2.797395427480e-01    5  5  2  2
 -9.108117043495e-09    5  5  3  2
  2.797395187172e-01    5  5  3  3
  1.821838549396e-09    5  5  4  1
  2.789984675061e-01    5  5  4  4
 -1.838292395909e-09    5  5  5  1
 -4.192774963959e-03    5  5  5  4
  2.192701767057e-01    5  5  5  5
 -9.414238973685e-08    6  1  1  1
  3.056752042389e-08    6  1  2  1
 -7.950591655609e-08    6  1  2  2
  5.519777742363e-08    6  1  3  1
  5.239669355338e-09    6  1  3  2
 -8.564840398744e-08    6  1  3  3
 -4.787840901809e-09    6  1  4  1
  1.361995330173e-08    6  1  4  2
 -3.323157932420e-10    6  1  4  3
 -8.052248920138e-08    6  1  4  4
  1.442014697521e-08    6  1  5  1
 -3.407811681513e-08    6  1  5  2
  8.622485666024e-10    6  1  5  3
  1.208367685509e-09    6  1  5  4
 -5.679608214636e-09    6  1  5  5
  4.806960174534e-03    6  1  6  1
  5.462833421555e-07    6  2  1  1
 -1.297914551357e-09    6  2  2  1
  5.916018624414e-07    6  2  2  2
  2.150742570334e-08    6  2  3  1
  5.119422804528e-08    6  2  3  2
  5.353980869742e-07    6  2  3  3
 -2.966214291139e-08    6  2  4  1
  1.356083024153e-08    6  2  4  2
 -5.692357962827e-09    6  2  4  3
  5.430177709958e-07    6  2  4  4
 -3.214968936396e-08    6  2  5  1
  1.077269869218e-08    6  2  5  2
  2.972913802718e-09    6  2  5  3
 -3.720018679147e-08    6  2  5  4
  4.072463197982e-08    6  2  5  5
  1.736605568945e-03    6  2  6  2
  9.864098216221e-07    6  3  1  1
 -9.902100923113e-09    6  3  2  1
  9.596597112843e-07    6  3  2  2
 -8.097421288650e-09    6  3  3  1
  3.226872863633e-08    6  3  3  2
  1.075322935847e-06    6  3  3  3
  7.064065777134e-10    6  3  4  1
 -5.692319507884e-09    6  3  4  2
 -1.710495280667e-09    6  3  4  3
  9.804920968570e-07    6  3  4  4
  8.051842660651e-10    6  3  5  1
  2.972668825048e-09    6  3  5  2
  1.055905055626e-08    6  3  5  3
 -6.719341156145e-08    6  3  5  4
  7.348213114059e-08    6  3  5  5
  1.713066032524e-03    6  3  6  2
  3.939419968374e-03    6  3  6  3
  4.342128986294e-08    6  4  1  1
  1.115499845525e-08    6  4  2  1
  4.028163443376e-08    6  4  2  2
 -2.723101070544e-10    6  4  3  1
  1.097620297527e-08    6  4  3  2
  6.846561826703e-08    6  4  3  3
 -5.452094483084e-09    6  4  4  1
  1.910030028740e-08    6  4  4  2
  3.448551733806e-08    6  4  4  3
  6.173715657514e-08    6  4  4  4
 -2.323464863124e-09    6  4  5  1
 -1.338920345750e-08    6  4  5  2
 -2.420583889198e-08    6  4  5  3
  6.423673637597e-09    6  4  5  4
  3.640347644949e-09    6  4  5  5
 -9.051149476381e-04    6  4  6  1
  1.845967914294e-03    6  4  6  4
  1.716390653773e-07    6  5  1  1
 -6.769811151303e-08    6  5  2  1
  1.630034691029e-07    6  5  2  2
  1.679566887092e-09    6  5  3  1
  6.387575697503e-09    6  5  3  2
  1.645944724191e-07    6  5  3  3
 -5.320109427008e-09    6  5  4  1
 -2.255775670665e-08    6  5  4  2
 -4.075925236224e-08    6  5  4  3
  1.600493541447e-07    6  5  4  4
  4.749682556850e-09    6  5  5  1
 -2.523132904265e-08    6  5  5  2
 -4.549966756805e-08    6  5  5  3
 -8.358629465292e-09    6  5  5  4
  6.518107278147e-08    6  5  5  5
  3.806506513846e-03    6  5  6  1
  1.099865741680e-12    6  5  6  3
 -3.349093328737e-03    6  5  6  4
  3.557378858978e-02    6  5  6  5
  2.130976241627e-01    6  6  1  1
  2.075650425818e-01    6  6  2  2
  2.715847769717e-03    6  6  3  2
  2.111015234406e-01    6  6  3  3
 -1.533210246699e-03    6  6  4  1
  2.076079602080e-01    6  6  4  4
  2.091341959388e-03    6  6  5  1
 -4.317993130560e-03    6  6  5  4
  1.783033240981e-01    6  6  5  5
  5.274735308229e-09    6  6  6  1
 -8.450039465994e-09    6  6  6  2
 -1.355213515440e-08    6  6  6  3
  2.103239740799e-09    6  6  6  4
  3.216502949573e-08    6  6  6  5
  1.656976369719e-01    6  6  6  6
 -2.416376013182e+00    1  1  0  0
 -2.399210151081e+00    2  2  0  0
 -1.208487263406e-08    3  2  0  0
 -2.399210168350e+00    3  3  0  0
  6.292961787291e-09    4  1  0  0
 -2.390177728646e+00    4  4  0  0
 -3.796913147651e-08    5  1  0  0
  5.905960213733e-02    5  4  0  0
 -1.297977549221e+00    5  5  0  0
  2.310886002551e-07    6  1  0  0
 -1.542964717320e-06    6  2  0  0
 -2.786038069213e-06    6  3  0  0
 -1.536604947319e-07    6  4  0  0
 -6.516254487976e-07    6  5  0  0
 -9.170541070394e-01    6  6  0  0
    -64.504641064194   0  0  0  0
