#INFO: **** input file is /projects/bamu3429/BENCHMARK/fresh_atoms/MRPT/vqz/atoms/V_1/mrpt.py ****
import json
from pyscf import gto,scf,mcscf, fci, lo, ci, cc
from pyscf.scf import ROHF, UHF,ROKS
import numpy as np
import pandas as pd

# THIS IS WERE IT STARTS ====================================

df=json.load(open("../../../trail.json"))

spins={'Sc':1, 'Ti':2, 'V':3, 'Cr':6, 'Mn':5, 'Fe':4, 'Cu':1}

nd={'Sc':(1,0), 'Ti':(2,0), 'V':(3,0), 'Cr':(5,0), 'Mn':(5,0), 'Fe':(5,1), 'Cu':(5,5)}

cas={'Sc':3, 'Ti':4, 'V':5, 'Cr':6, 'Mn':7, 'Fe':8, 'Cu':11}

datacsv={}
for nm in ['atom','charge','method','basis','pseudopotential','hf',
           'totalenergy','totalenergy-stocherr','totalenergy-syserr']:
  datacsv[nm]=[]

basis='vqz'
el='V'
charge=1

mol=gto.Mole()
mol.ecp={}
mol.basis={}
mol.ecp[el]=gto.basis.parse_ecp(df[el]['ecp'])
mol.basis[el]=gto.basis.parse(df[el][basis])
mol.charge=charge
if el == 'Cr' or el == 'Cu':
  mol.spin=spins[el]-charge
else:
  mol.spin=spins[el]+charge
mol.build(atom="%s 0. 0. 0."%el,verbose=4)

m=ROHF(mol)
m.level_shift=1000.0
dm=m.from_chk("../../../../HF/atoms/"+el+basis+str(charge)+".chk")
hf=m.kernel(dm)
m.analyze()

from pyscf.shciscf import shci
mc = shci.SHCISCF(m, 6, cas[el]-charge)
#mc.fcisolver.conv_tol = 1e-14
mc.fcisolver.mpiprefix="mpirun -np 28"
mc.fcisolver.num_thrds=12
mc.verbose = 4
cas=mc.kernel()[0]
 
from pyscf.icmpspt import icmpspt
pt=icmpspt.icmpspt(mc,rdmM=500, PTM=1000,\
                          pttype="MRLCC",\
                          third_order=True,\
                          fully_ic=True,\
                          do_dm4=True)

datacsv['atom'].append(el)
datacsv['charge'].append(charge)
datacsv['method'].append('MRPT')
datacsv['basis'].append(basis)
datacsv['pseudopotential'].append('trail')
datacsv['hf'].append(hf)
datacsv['totalenergy'].append(cas+pt)
datacsv['totalenergy-stocherr'].append(0.0)
datacsv['totalenergy-syserr'].append(0.0)
pd.DataFrame(datacsv).to_csv(el+".csv",index=False)

#INFO: ******************** input file end ********************


System: ('Linux', 'bnode0304.rc.int.colorado.edu', '3.10.0-514.41.1.el7.x86_64', '#1 SMP Wed Jan 17 10:26:16 EST 2018', 'x86_64', 'x86_64')  Threads 28
Python 2.7.11 (default, Mar 22 2016, 01:42:54) 
[GCC Intel(R) C++ gcc 4.8 mode]
numpy 1.11.1  scipy 0.17.1
Date: Thu Mar 29 12:39:36 2018
PySCF version 1.4
PySCF path  /projects/bamu3429/softwares/pyscf_uptodate/pyscf
GIT ORIG_HEAD e2292e6edec2b0e0024c21b81de03db1d7bd4121
GIT HEAD      ref: refs/heads/master
GIT master branch  f3591ef22170896a4cdc2aadaa6f5da388ffcadb

[INPUT] VERBOSE 4
[INPUT] num atoms = 1
[INPUT] num electrons = 12
[INPUT] charge = 1
[INPUT] spin (= nelec alpha-beta = 2S) = 4
[INPUT] symmetry False subgroup None
[INPUT]  1 V      0.000000000000   0.000000000000   0.000000000000 AA    0.000000000000   0.000000000000   0.000000000000 Bohr
[INPUT] ---------------- BASIS SET ---------------- 
[INPUT] l, kappa, [nprim/nctr], expnt,             c_1 c_2 ...
[INPUT] V
[INPUT] 0    0    [12   /1   ]  33.51168105       0.006845
                                15.38532624       -0.214557
                                9.96227367        1.392425
                                8.05943355        -1.485929
                                3.6960334         -0.026725
                                1.49220279        0.457681
                                0.84622253        0.506886
                                0.43855031        0.249453
                                0.2102388         0.007109
                                0.1022422         0.007055
                                0.04832462        -0.000443
                                0.02406855        0.001278
[INPUT] 0    0    [12   /1   ]  33.51168105       -0.001211
                                15.38532624       0.04697
                                9.96227367        -0.329808
                                8.05943355        0.363635
                                3.6960334         0.005985
                                1.49220279        -0.140857
                                0.84622253        -0.203846
                                0.43855031        -0.200776
                                0.2102388         0.022081
                                0.1022422         0.429765
                                0.04832462        0.534383
                                0.02406855        0.187984
[INPUT] 0    0    [12   /1   ]  33.51168105       -0.00739
                                15.38532624       0.238491
                                9.96227367        -1.724091
                                8.05943355        1.999647
                                3.6960334         -0.238256
                                1.49220279        -1.556963
                                0.84622253        0.309646
                                0.43855031        0.556155
                                0.2102388         0.87521
                                0.1022422         0.066563
                                0.04832462        -0.498018
                                0.02406855        -0.328938
[INPUT] 0    0    [12   /1   ]  33.51168105       -0.014812
                                15.38532624       0.388493
                                9.96227367        -2.78127
                                8.05943355        3.330758
                                3.6960334         -0.94462
                                1.49220279        -2.423512
                                0.84622253        2.390354
                                0.43855031        1.173321
                                0.2102388         -1.126324
                                0.1022422         -1.21378
                                0.04832462        0.578957
                                0.02406855        0.647397
[INPUT] 0    0    [12   /1   ]  33.51168105       0.02431
                                15.38532624       -0.654708
                                9.96227367        5.220233
                                8.05943355        -6.798776
                                3.6960334         4.217259
                                1.49220279        -0.410754
                                0.84622253        -4.499651
                                0.43855031        4.05621
                                0.2102388         0.422256
                                0.1022422         -1.849392
                                0.04832462        -0.198025
                                0.02406855        0.951472
[INPUT] 0    0    [1    /1   ]  0.02406855           1
[INPUT] 0    0    [1    /1   ]  0.01198757           1
[INPUT] 1    0    [12   /1   ]  49.83779697       0.000413
                                25.60370921       -0.003442
                                10.40982442       0.097153
                                7.71483683        -0.206888
                                4.49868206        0.083281
                                2.48212838        0.186621
                                1.4387019         0.395144
                                0.72090362        0.377883
                                0.3443302         0.134629
                                0.13162828        0.011074
                                0.05284968        -0.000426
                                0.02121951        0.000256
[INPUT] 1    0    [12   /1   ]  49.83779697       -2.9e-05
                                25.60370921       0.000502
                                10.40982442       -0.020934
                                7.71483683        0.047431
                                4.49868206        -0.020701
                                2.48212838        -0.057583
                                1.4387019         -0.106451
                                0.72090362        -0.140229
                                0.3443302         0.043257
                                0.13162828        0.438687
                                0.05284968        0.536785
                                0.02121951        0.12546
[INPUT] 1    0    [12   /1   ]  49.83779697       0.000125
                                25.60370921       -0.002517
                                10.40982442       0.129205
                                7.71483683        -0.331116
                                4.49868206        0.199683
                                2.48212838        0.736477
                                1.4387019         0.263863
                                0.72090362        -0.926674
                                0.3443302         -0.457633
                                0.13162828        0.732362
                                0.05284968        0.294964
                                0.02121951        -0.006728
[INPUT] 1    0    [12   /1   ]  49.83779697       -0.000421
                                25.60370921       -0.000896
                                10.40982442       0.223292
                                7.71483683        -0.706699
                                4.49868206        0.969782
                                2.48212838        1.23461
                                1.4387019         -1.707054
                                0.72090362        -0.818959
                                0.3443302         1.677915
                                0.13162828        -0.284846
                                0.05284968        -0.553275
                                0.02121951        0.038662
[INPUT] 1    0    [12   /1   ]  49.83779697       -0.005409
                                25.60370921       0.02436
                                10.40982442       0.004817
                                7.71483683        -0.691264
                                4.49868206        2.714011
                                2.48212838        -1.342486
                                1.4387019         -2.368929
                                0.72090362        3.305492
                                0.3443302         -1.334113
                                0.13162828        -0.670775
                                0.05284968        0.961376
                                0.02121951        -0.095792
[INPUT] 1    0    [1    /1   ]  0.02121951           1
[INPUT] 1    0    [1    /1   ]  0.00851977           1
[INPUT] 2    0    [10   /1   ]  34.27504048       0.000678
                                16.12418185       -0.017858
                                9.59474528        0.107867
                                3.8690861         0.173949
                                1.82728072        0.26883
                                0.85799457        0.321303
                                0.38035078        0.300128
                                0.15533087        0.170792
                                0.06318167        0.035148
                                0.03734397        0.003549
[INPUT] 2    0    [10   /1   ]  34.27504048       0.000582
                                16.12418185       0.010626
                                9.59474528        -0.094081
                                3.8690861         -0.229152
                                1.82728072        -0.398003
                                0.85799457        -0.07706
                                0.38035078        0.316419
                                0.15533087        0.47231
                                0.06318167        0.193995
                                0.03734397        0.015813
[INPUT] 2    0    [10   /1   ]  34.27504048       0.003942
                                16.12418185       -0.00929
                                9.59474528        -0.056573
                                3.8690861         -0.437279
                                1.82728072        -0.366316
                                0.85799457        0.692165
                                0.38035078        0.436052
                                0.15533087        -0.45661
                                0.06318167        -0.393393
                                0.03734397        -0.018597
[INPUT] 2    0    [10   /1   ]  34.27504048       -0.001109
                                16.12418185       0.03439
                                9.59474528        -0.270394
                                3.8690861         -0.936233
                                1.82728072        1.031092
                                0.85799457        0.469932
                                0.38035078        -0.990908
                                0.15533087        0.147863
                                0.06318167        0.422386
                                0.03734397        0.020135
[INPUT] 2    0    [1    /1   ]  0.03734397           1
[INPUT] 2    0    [1    /1   ]  0.02207241           1
[INPUT] 3    0    [1    /1   ]  3.23539              1
[INPUT] 3    0    [1    /1   ]  1.128879             1
[INPUT] 3    0    [1    /1   ]  0.393882             1
[INPUT] 3    0    [1    /1   ]  0.13743105           1
[INPUT] 4    0    [1    /1   ]  3.232259             1
[INPUT] 4    0    [1    /1   ]  1.154065             1
[INPUT] 4    0    [1    /1   ]  0.41205423           1
[INPUT] 5    0    [1    /1   ]  2.694878             1
[INPUT] 5    0    [1    /1   ]  0.96219527           1
nuclear repulsion = 0
number of shells = 29
number of NR pGTOs = 535
number of NR cGTOs = 135
basis = {'V': [[0, [33.51168105, 0.006845], [15.38532624, -0.214557], [9.96227367, 1.392425], [8.05943355, -1.485929], [3.6960334, -0.026725], [1.49220279, 0.457681], [0.84622253, 0.506886], [0.43855031, 0.249453], [0.2102388, 0.007109], [0.1022422, 0.007055], [0.04832462, -0.000443], [0.02406855, 0.001278]], [0, [33.51168105, -0.001211], [15.38532624, 0.04697], [9.96227367, -0.329808], [8.05943355, 0.363635], [3.6960334, 0.005985], [1.49220279, -0.140857], [0.84622253, -0.203846], [0.43855031, -0.200776], [0.2102388, 0.022081], [0.1022422, 0.429765], [0.04832462, 0.534383], [0.02406855, 0.187984]], [0, [33.51168105, -0.00739], [15.38532624, 0.238491], [9.96227367, -1.724091], [8.05943355, 1.999647], [3.6960334, -0.238256], [1.49220279, -1.556963], [0.84622253, 0.309646], [0.43855031, 0.556155], [0.2102388, 0.87521], [0.1022422, 0.066563], [0.04832462, -0.498018], [0.02406855, -0.328938]], [0, [33.51168105, -0.014812], [15.38532624, 0.388493], [9.96227367, -2.78127], [8.05943355, 3.330758], [3.6960334, -0.94462], [1.49220279, -2.423512], [0.84622253, 2.390354], [0.43855031, 1.173321], [0.2102388, -1.126324], [0.1022422, -1.21378], [0.04832462, 0.578957], [0.02406855, 0.647397]], [0, [33.51168105, 0.02431], [15.38532624, -0.654708], [9.96227367, 5.220233], [8.05943355, -6.798776], [3.6960334, 4.217259], [1.49220279, -0.410754], [0.84622253, -4.499651], [0.43855031, 4.05621], [0.2102388, 0.422256], [0.1022422, -1.849392], [0.04832462, -0.198025], [0.02406855, 0.951472]], [0, [0.02406855, 1.0]], [0, [0.01198757, 1.0]], [1, [49.83779697, 0.000413], [25.60370921, -0.003442], [10.40982442, 0.097153], [7.71483683, -0.206888], [4.49868206, 0.083281], [2.48212838, 0.186621], [1.4387019, 0.395144], [0.72090362, 0.377883], [0.3443302, 0.134629], [0.13162828, 0.011074], [0.05284968, -0.000426], [0.02121951, 0.000256]], [1, [49.83779697, -2.9e-05], [25.60370921, 0.000502], [10.40982442, -0.020934], [7.71483683, 0.047431], [4.49868206, -0.020701], [2.48212838, -0.057583], [1.4387019, -0.106451], [0.72090362, -0.140229], [0.3443302, 0.043257], [0.13162828, 0.438687], [0.05284968, 0.536785], [0.02121951, 0.12546]], [1, [49.83779697, 0.000125], [25.60370921, -0.002517], [10.40982442, 0.129205], [7.71483683, -0.331116], [4.49868206, 0.199683], [2.48212838, 0.736477], [1.4387019, 0.263863], [0.72090362, -0.926674], [0.3443302, -0.457633], [0.13162828, 0.732362], [0.05284968, 0.294964], [0.02121951, -0.006728]], [1, [49.83779697, -0.000421], [25.60370921, -0.000896], [10.40982442, 0.223292], [7.71483683, -0.706699], [4.49868206, 0.969782], [2.48212838, 1.23461], [1.4387019, -1.707054], [0.72090362, -0.818959], [0.3443302, 1.677915], [0.13162828, -0.284846], [0.05284968, -0.553275], [0.02121951, 0.038662]], [1, [49.83779697, -0.005409], [25.60370921, 0.02436], [10.40982442, 0.004817], [7.71483683, -0.691264], [4.49868206, 2.714011], [2.48212838, -1.342486], [1.4387019, -2.368929], [0.72090362, 3.305492], [0.3443302, -1.334113], [0.13162828, -0.670775], [0.05284968, 0.961376], [0.02121951, -0.095792]], [1, [0.02121951, 1.0]], [1, [0.00851977, 1.0]], [2, [34.27504048, 0.000678], [16.12418185, -0.017858], [9.59474528, 0.107867], [3.8690861, 0.173949], [1.82728072, 0.26883], [0.85799457, 0.321303], [0.38035078, 0.300128], [0.15533087, 0.170792], [0.06318167, 0.035148], [0.03734397, 0.003549]], [2, [34.27504048, 0.000582], [16.12418185, 0.010626], [9.59474528, -0.094081], [3.8690861, -0.229152], [1.82728072, -0.398003], [0.85799457, -0.07706], [0.38035078, 0.316419], [0.15533087, 0.47231], [0.06318167, 0.193995], [0.03734397, 0.015813]], [2, [34.27504048, 0.003942], [16.12418185, -0.00929], [9.59474528, -0.056573], [3.8690861, -0.437279], [1.82728072, -0.366316], [0.85799457, 0.692165], [0.38035078, 0.436052], [0.15533087, -0.45661], [0.06318167, -0.393393], [0.03734397, -0.018597]], [2, [34.27504048, -0.001109], [16.12418185, 0.03439], [9.59474528, -0.270394], [3.8690861, -0.936233], [1.82728072, 1.031092], [0.85799457, 0.469932], [0.38035078, -0.990908], [0.15533087, 0.147863], [0.06318167, 0.422386], [0.03734397, 0.020135]], [2, [0.03734397, 1.0]], [2, [0.02207241, 1.0]], [3, [3.23539, 1.0]], [3, [1.128879, 1.0]], [3, [0.393882, 1.0]], [3, [0.13743105, 1.0]], [4, [3.232259, 1.0]], [4, [1.154065, 1.0]], [4, [0.41205423, 1.0]], [5, [2.694878, 1.0]], [5, [0.96219527, 1.0]]]}
ecp = {'V': [10, [[-1, [[], [[8.85341849, 13.0]], [[14.12393489, 1867.96836466], [10.01469125, -417.2185296], [16.87739786, -6735.41034163], [17.42661229, 5248.9519915]], [[8.14766139, 115.09444037]]]], [0, [[], [], [[10.17161428, 8429.89768085], [6.62108601, -4738.0869454], [6.4407206, 3874.69004628], [11.26222343, -9817.80452096], [19.82459033, -286.16022228], [14.35299938, 2571.80634504]], []]], [1, [[], [], [[10.25117807, 40641.17869487], [10.49106006, -41559.00487832], [13.7869188, 3357.33248976], [16.29479305, -896.47755921], [7.79003518, -1904.45864373], [6.62830213, 382.3757783]], []]], [2, [[], [], [[8.601477, 4615.05527413], [10.66674565, -3671.60281242], [15.19026557, 4480.50015686], [8.06189603, -2591.12632756], [19.82232597, 2587.18683714], [18.22318105, -5431.92186158]], []]]]]}
CPU time:         3.72


******** <class 'pyscf.scf.rohf.ROHF'> flags ********
method = ROHF
initial guess = minao
damping factor = 0
level shift factor = 1000.0
DIIS = <class 'pyscf.scf.diis.CDIIS'>
DIIS start cycle = 1
DIIS space = 8
SCF tol = 1e-09
SCF gradient tol = None
max. SCF cycles = 50
direct_scf = True
direct_scf_tol = 1e-13
chkfile to save SCF result = /projects/bamu3429/BENCHMARK/fresh_atoms/MRPT/vqz/atoms/V_1/tmpYzq47q
max_memory 4000 MB (current use 135 MB)
num. doubly occ = 4  num. singly occ = 4
Set gradient conv threshold to 3.16228e-05
init E= -70.4803151284252
  HOMO = 499.804721664489  LUMO = 999.807973647705
cycle= 1 E= -70.4774913581523  delta_E= 0.00282  |g|= 0.0062  |ddm|= 0.0316
  HOMO = 499.804790912444  LUMO = 999.808031242144
cycle= 2 E= -70.4774914744037  delta_E= -1.16e-07  |g|= 0.00614  |ddm|= 1.42e-05
  HOMO = 499.804597091727  LUMO = 999.808015635139
cycle= 3 E= -70.4774915920841  delta_E= -1.18e-07  |g|= 0.00609  |ddm|= 1.46e-05
  HOMO = 499.804549634919  LUMO = 999.808012452789
cycle= 4 E= -70.4774917067043  delta_E= -1.15e-07  |g|= 0.00603  |ddm|= 1.44e-05
  HOMO = 499.804531042896  LUMO = 999.80800715193
cycle= 5 E= -70.4774918212351  delta_E= -1.15e-07  |g|= 0.00598  |ddm|= 1.46e-05
  HOMO = 499.804524244717  LUMO = 999.808006652338
cycle= 6 E= -70.4774919342217  delta_E= -1.13e-07  |g|= 0.00593  |ddm|= 1.45e-05
  HOMO = 499.804397684764  LUMO = 999.807991182621
cycle= 7 E= -70.4774920452535  delta_E= -1.11e-07  |g|= 0.00587  |ddm|= 1.45e-05
  HOMO = 499.804386991222  LUMO = 999.807990699212
cycle= 8 E= -70.4774921539339  delta_E= -1.09e-07  |g|= 0.00582  |ddm|= 1.44e-05
  HOMO = 499.804365883149  LUMO = 999.807988778242
cycle= 9 E= -70.4774922607007  delta_E= -1.07e-07  |g|= 0.00577  |ddm|= 1.43e-05
  HOMO = 499.804414307555  LUMO = 999.807991368568
cycle= 10 E= -70.4774923663674  delta_E= -1.06e-07  |g|= 0.00573  |ddm|= 1.43e-05
  HOMO = 499.804402546584  LUMO = 999.807990858605
cycle= 11 E= -70.4774924698439  delta_E= -1.03e-07  |g|= 0.00568  |ddm|= 1.41e-05
  HOMO = 499.804407487422  LUMO = 999.807992126874
cycle= 12 E= -70.4774925714062  delta_E= -1.02e-07  |g|= 0.00563  |ddm|= 1.4e-05
  HOMO = 499.804397866118  LUMO = 999.807991379026
cycle= 13 E= -70.477492671133  delta_E= -9.97e-08  |g|= 0.00559  |ddm|= 1.39e-05
  HOMO = 499.80441385912  LUMO = 999.807992829277
cycle= 14 E= -70.4774927689631  delta_E= -9.78e-08  |g|= 0.00554  |ddm|= 1.37e-05
  HOMO = 499.80440785733  LUMO = 999.807991961312
cycle= 15 E= -70.4774928650893  delta_E= -9.61e-08  |g|= 0.0055  |ddm|= 1.36e-05
  HOMO = 499.804406269526  LUMO = 999.80799207805
cycle= 16 E= -70.4774929595035  delta_E= -9.44e-08  |g|= 0.00546  |ddm|= 1.35e-05
  HOMO = 499.804393866739  LUMO = 999.807991419393
cycle= 17 E= -70.4774930520978  delta_E= -9.26e-08  |g|= 0.00542  |ddm|= 1.34e-05
  HOMO = 499.804396997645  LUMO = 999.807991550187
cycle= 18 E= -70.4774931431236  delta_E= -9.1e-08  |g|= 0.00538  |ddm|= 1.33e-05
  HOMO = 499.804400020373  LUMO = 999.807991691217
cycle= 19 E= -70.4774932327184  delta_E= -8.96e-08  |g|= 0.00534  |ddm|= 1.32e-05
  HOMO = 499.804378446797  LUMO = 999.807989907294
cycle= 20 E= -70.4774933206878  delta_E= -8.8e-08  |g|= 0.0053  |ddm|= 1.31e-05
  HOMO = 499.804381797849  LUMO = 999.807990031409
cycle= 21 E= -70.4774934072209  delta_E= -8.65e-08  |g|= 0.00526  |ddm|= 1.3e-05
  HOMO = 499.804381661491  LUMO = 999.807990003518
cycle= 22 E= -70.4774934923412  delta_E= -8.51e-08  |g|= 0.00523  |ddm|= 1.29e-05
  HOMO = 499.804376763921  LUMO = 999.807989594091
cycle= 23 E= -70.4774935760764  delta_E= -8.37e-08  |g|= 0.00519  |ddm|= 1.28e-05
  HOMO = 499.804385967597  LUMO = 999.807989798172
cycle= 24 E= -70.4774936586256  delta_E= -8.25e-08  |g|= 0.00516  |ddm|= 1.27e-05
  HOMO = 499.80438331809  LUMO = 999.807989577197
cycle= 25 E= -70.4774937399087  delta_E= -8.13e-08  |g|= 0.00512  |ddm|= 1.26e-05
  HOMO = 499.804390996147  LUMO = 999.807990143668
cycle= 26 E= -70.4774938199614  delta_E= -8.01e-08  |g|= 0.00509  |ddm|= 1.25e-05
  HOMO = 499.804385028729  LUMO = 999.807989801268
cycle= 27 E= -70.4774938987147  delta_E= -7.88e-08  |g|= 0.00505  |ddm|= 1.24e-05
  HOMO = 499.804420139155  LUMO = 999.807991853756
cycle= 28 E= -70.4774939766155  delta_E= -7.79e-08  |g|= 0.00502  |ddm|= 1.24e-05
  HOMO = 499.804343202441  LUMO = 999.807986460931
cycle= 29 E= -70.4774940526408  delta_E= -7.6e-08  |g|= 0.00499  |ddm|= 1.22e-05
  HOMO = 499.804343572479  LUMO = 999.807986556627
cycle= 30 E= -70.4774941275977  delta_E= -7.5e-08  |g|= 0.00496  |ddm|= 1.22e-05
  HOMO = 499.804355562937  LUMO = 999.807987360269
cycle= 31 E= -70.4774942015735  delta_E= -7.4e-08  |g|= 0.00493  |ddm|= 1.21e-05
  HOMO = 499.804345277115  LUMO = 999.807986917533
cycle= 32 E= -70.4774942743516  delta_E= -7.28e-08  |g|= 0.0049  |ddm|= 1.2e-05
  HOMO = 499.804346990126  LUMO = 999.807986445953
cycle= 33 E= -70.477494346211  delta_E= -7.19e-08  |g|= 0.00487  |ddm|= 1.19e-05
  HOMO = 499.804354264971  LUMO = 999.807986465929
cycle= 34 E= -70.4774944172907  delta_E= -7.11e-08  |g|= 0.00484  |ddm|= 1.19e-05
  HOMO = 499.804353541265  LUMO = 999.807986489707
cycle= 35 E= -70.4774944872896  delta_E= -7e-08  |g|= 0.00481  |ddm|= 1.18e-05
  HOMO = 499.804372768054  LUMO = 999.807987686272
cycle= 36 E= -70.4774945565259  delta_E= -6.92e-08  |g|= 0.00478  |ddm|= 1.17e-05
  HOMO = 499.804365366276  LUMO = 999.807987467474
cycle= 37 E= -70.4774946246238  delta_E= -6.81e-08  |g|= 0.00475  |ddm|= 1.16e-05
  HOMO = 499.804313931875  LUMO = 999.807983981398
cycle= 38 E= -70.4774946914386  delta_E= -6.68e-08  |g|= 0.00472  |ddm|= 1.15e-05
  HOMO = 499.804352438887  LUMO = 999.807985666813
cycle= 39 E= -70.4774947579316  delta_E= -6.65e-08  |g|= 0.00469  |ddm|= 1.15e-05
  HOMO = 499.804352976029  LUMO = 999.807985627777
cycle= 40 E= -70.4774948235828  delta_E= -6.57e-08  |g|= 0.00467  |ddm|= 1.15e-05
  HOMO = 499.804372486794  LUMO = 999.807986935793
cycle= 41 E= -70.4774948885218  delta_E= -6.49e-08  |g|= 0.00464  |ddm|= 1.14e-05
  HOMO = 499.804365252462  LUMO = 999.807986161084
cycle= 42 E= -70.4774949527268  delta_E= -6.42e-08  |g|= 0.00462  |ddm|= 1.14e-05
  HOMO = 499.804377055211  LUMO = 999.807987107066
cycle= 43 E= -70.4774950161855  delta_E= -6.35e-08  |g|= 0.00459  |ddm|= 1.13e-05
  HOMO = 499.804352208839  LUMO = 999.80798467939
cycle= 44 E= -70.4774950785472  delta_E= -6.24e-08  |g|= 0.00456  |ddm|= 1.12e-05
  HOMO = 499.8043551321  LUMO = 999.80798474489
cycle= 45 E= -70.4774951400196  delta_E= -6.15e-08  |g|= 0.00454  |ddm|= 1.11e-05
  HOMO = 499.804314552223  LUMO = 999.807982586624
cycle= 46 E= -70.4774952003671  delta_E= -6.03e-08  |g|= 0.00451  |ddm|= 1.1e-05
  HOMO = 499.804323798844  LUMO = 999.807982887994
cycle= 47 E= -70.4774952600845  delta_E= -5.97e-08  |g|= 0.00449  |ddm|= 1.09e-05
  HOMO = 499.80432344973  LUMO = 999.807983472812
cycle= 48 E= -70.4774953188819  delta_E= -5.88e-08  |g|= 0.00447  |ddm|= 1.08e-05
  HOMO = 499.804345338816  LUMO = 999.807985327424
cycle= 49 E= -70.4774953769153  delta_E= -5.8e-08  |g|= 0.00444  |ddm|= 1.07e-05
  HOMO = 499.80432777993  LUMO = 999.807984406569
cycle= 50 E= -70.4774954342268  delta_E= -5.73e-08  |g|= 0.00442  |ddm|= 1.07e-05
  HOMO = -0.195310450033134  LUMO = -0.191968861923624
Extra cycle  E= -70.4773121436218  delta_E= 0.000183  |g|= 0.00933  |ddm|= 0.0667
SCF not converged.
SCF energy = -70.4773121436218 after 50 cycles
**** MO energy ****
                Roothaan           | alpha              | beta
MO #1   energy= -3.28662869016096  | -3.42187217215958  | -3.15142397951609  occ= 2
MO #2   energy= -2.11974536711586  | -2.27050763939269  | -1.96898309483903  occ= 2
MO #3   energy= -2.11974536711585  | -2.27050763939267  | -1.96898309483904  occ= 2
MO #4   energy= -2.11202524091269  | -2.31391328958386  | -1.91013719224151  occ= 2
MO #5   energy= -0.23016824490414  | -0.616973379498052 | 0.155572239035269  occ= 1
MO #6   energy= -0.203933599113959 | -0.577138840384832 | 0.168805531046674  occ= 1
MO #7   energy= -0.203933599113958 | -0.577138840384966 | 0.168805531046788  occ= 1
MO #8   energy= -0.195310450033134 | -0.563483061230951 | 0.173020939930695  occ= 1
MO #9   energy= -0.191968861923624 | -0.206699921825689 | -0.177523608622549 occ= 0
MO #10  energy= -0.112853820790734 | -0.117693411222228 | -0.108014230359235 occ= 0
MO #11  energy= -0.112853820790728 | -0.117693411222226 | -0.10801423035923  occ= 0
MO #12  energy= -0.109236083372088 | -0.115537997284656 | -0.102934169459519 occ= 0
MO #13  energy= -0.0702253237216894 | -0.0726502671341281 | -0.0678024209383719 occ= 0
MO #14  energy= -0.0585477002293912 | -0.0626649596622542 | -0.0544304407965303 occ= 0
MO #15  energy= -0.0501466933701454 | -0.0516050705892332 | -0.0486883161510608 occ= 0
MO #16  energy= -0.0501466933701444 | -0.0516050705892327 | -0.0486883161510592 occ= 0
MO #17  energy= -0.0490898181834692 | -0.0510863652199897 | -0.0470932711469539 occ= 0
MO #18  energy= -0.0473806609664595 | -0.048539288980222 | -0.0461314009696175 occ= 0
MO #19  energy= -0.0462124183554827 | -0.0474392462221173 | -0.0449532227758882 occ= 0
MO #20  energy= -0.0462124183554791 | -0.0474392462221149 | -0.0449532227758802 occ= 0
MO #21  energy= -0.0457982690288564 | -0.04705800232163  | -0.044539976338289 occ= 0
MO #22  energy= -0.00809996788469739 | -0.0200861901815215 | 0.00388625441212705 occ= 0
MO #23  energy= 0.0359612194536055 | 0.0280406651736591 | 0.0438817737335409 occ= 0
MO #24  energy= 0.0359612194536095 | 0.0280406651736639 | 0.0438817737335577 occ= 0
MO #25  energy= 0.0386945391795001 | 0.0339334718982338 | 0.0436994296461859 occ= 0
MO #26  energy= 0.0406317122326437 | 0.0294501108439047 | 0.0518133136213767 occ= 0
MO #27  energy= 0.0417295600121841 | 0.0365320480958313 | 0.0470156512380971 occ= 0
MO #28  energy= 0.0417295600122072 | 0.0365320480958164 | 0.0470156512379968 occ= 0
MO #29  energy= 0.0428361942986531 | 0.0374422353005657 | 0.0482332287304862 occ= 0
MO #30  energy= 0.0687419530960377 | 0.0605192360114912 | 0.0769594891358994 occ= 0
MO #31  energy= 0.0916815376129037 | 0.0707555201551567 | 0.112607555070647  occ= 0
MO #32  energy= 0.315763292285435  | 0.311108608104519  | 0.320417976466349  occ= 0
MO #33  energy= 0.315763292285437  | 0.31110860810452   | 0.320417976466351  occ= 0
MO #34  energy= 0.318770537551326  | 0.310847965904433  | 0.326693109198221  occ= 0
MO #35  energy= 0.318901854579992  | 0.313258408700619  | 0.324545300459362  occ= 0
MO #36  energy= 0.320746152148945  | 0.313117507057028  | 0.328374797240862  occ= 0
MO #37  energy= 0.320746152148954  | 0.313117507057029  | 0.328374797240871  occ= 0
MO #38  energy= 0.321404637465643  | 0.313571431303441  | 0.32923784362785   occ= 0
MO #39  energy= 0.453319807045714  | 0.414537354654742  | 0.492736939762226  occ= 0
MO #40  energy= 0.454618670722378  | 0.439453887826344  | 0.46976951624873   occ= 0
MO #41  energy= 0.466760254527286  | 0.426880985484203  | 0.50690566738703   occ= 0
MO #42  energy= 0.466760254527466  | 0.426880985484298  | 0.506905667387063  occ= 0
MO #43  energy= 0.472014482332789  | 0.431810258970407  | 0.512326949836313  occ= 0
MO #44  energy= 0.51950433424054   | 0.49844249229226   | 0.540566176188816  occ= 0
MO #45  energy= 0.893633716318072  | 0.864010764402799  | 0.923256668233331  occ= 0
MO #46  energy= 0.893633716318074  | 0.864010764402797  | 0.923256668233343  occ= 0
MO #47  energy= 0.911018385447604  | 0.871834192564111  | 0.950202578331096  occ= 0
MO #48  energy= 1.34757185022096   | 1.3169898830528    | 1.37815381738911   occ= 0
MO #49  energy= 1.34757185022096   | 1.31698988305281   | 1.3781538173891    occ= 0
MO #50  energy= 1.35071280751683   | 1.30395572477909   | 1.39746989025458   occ= 0
MO #51  energy= 1.35482749338213   | 1.32210569285035   | 1.38754929391391   occ= 0
MO #52  energy= 1.356998139819     | 1.3154231103021    | 1.39857316933589   occ= 0
MO #53  energy= 1.35699813981901   | 1.3154231103021    | 1.3985731693359    occ= 0
MO #54  energy= 1.35828224000933   | 1.31378064200643   | 1.40278383801222   occ= 0
MO #55  energy= 1.6997753694404    | 1.6884803002183    | 1.71107632525984   occ= 0
MO #56  energy= 1.69986327400938   | 1.6883553084977    | 1.71137123952107   occ= 0
MO #57  energy= 1.70754554980749   | 1.69335815627198   | 1.72173531243632   occ= 0
MO #58  energy= 1.70754554980749   | 1.69335815627198   | 1.72173531243632   occ= 0
MO #59  energy= 1.71152218149222   | 1.69718937425604   | 1.72585498872839   occ= 0
MO #60  energy= 1.7142678095506    | 1.69607390983081   | 1.73246177335046   occ= 0
MO #61  energy= 1.71599117754746   | 1.6985802462693    | 1.73340262753133   occ= 0
MO #62  energy= 1.71599117754746   | 1.69858024626931   | 1.73340262753134   occ= 0
MO #63  energy= 1.71682861032576   | 1.69949402469397   | 1.7341636539182    occ= 0
MO #64  energy= 2.23560203674821   | 2.20086455947057   | 2.27033823121708   occ= 0
MO #65  energy= 2.37379672434425   | 2.30320156595418   | 2.44448819564959   occ= 0
MO #66  energy= 2.39409133436125   | 2.32599021003422   | 2.46226306036586   occ= 0
MO #67  energy= 2.39409133436133   | 2.32599021003435   | 2.46226306036588   occ= 0
MO #68  energy= 2.40218158933756   | 2.37755032463582   | 2.42681285403931   occ= 0
MO #69  energy= 2.40249697000729   | 2.33437417396999   | 2.47067941991106   occ= 0
MO #70  energy= 3.79476684874628   | 3.75883209156107   | 3.83070160593147   occ= 0
MO #71  energy= 3.79476684874629   | 3.75883209156109   | 3.8307016059315    occ= 0
MO #72  energy= 3.82399446899993   | 3.777381260345     | 3.87060767765485   occ= 0
MO #73  energy= 3.92292540427786   | 3.86335235722697   | 3.98249845132876   occ= 0
MO #74  energy= 3.92292540427786   | 3.86335235722696   | 3.98249845132875   occ= 0
MO #75  energy= 3.92904375996834   | 3.84083297023029   | 4.01725454970638   occ= 0
MO #76  energy= 3.93535667011985   | 3.87331193890147   | 3.99740140133824   occ= 0
MO #77  energy= 3.93993363889421   | 3.86212942448251   | 4.01773785330591   occ= 0
MO #78  energy= 3.93993363889421   | 3.86212942448252   | 4.01773785330591   occ= 0
MO #79  energy= 3.94229672177219   | 3.85965819457105   | 4.02493524897332   occ= 0
MO #80  energy= 5.23642253968334   | 5.21947938922229   | 5.25336569014439   occ= 0
MO #81  energy= 5.23642253968335   | 5.2194793892223    | 5.25336569014439   occ= 0
MO #82  energy= 5.24851404865177   | 5.22890342026054   | 5.26812467704299   occ= 0
MO #83  energy= 5.24930407618875   | 5.22892140398549   | 5.269686748392     occ= 0
MO #84  energy= 5.25699054099675   | 5.23581050721233   | 5.27817057478119   occ= 0
MO #85  energy= 5.25699054099676   | 5.23581050721233   | 5.27817057478121   occ= 0
MO #86  energy= 5.26015654490091   | 5.23913159038379   | 5.28118149941804   occ= 0
MO #87  energy= 5.26803131416886   | 5.24212973706829   | 5.29393289126943   occ= 0
MO #88  energy= 5.26872628581502   | 5.24346788051449   | 5.29398469111557   occ= 0
MO #89  energy= 5.26872628581502   | 5.24346788051449   | 5.29398469111557   occ= 0
MO #90  energy= 5.26923146346736   | 5.24433137620498   | 5.29413155072975   occ= 0
MO #91  energy= 5.49555399609004   | 5.46461691469492   | 5.52650144913739   occ= 0
MO #92  energy= 5.49579075905734   | 5.4641537957603    | 5.52742772235438   occ= 0
MO #93  energy= 5.51011266454485   | 5.4723066656636    | 5.54792306281777   occ= 0
MO #94  energy= 5.51011266454485   | 5.4723066656636    | 5.54792306281777   occ= 0
MO #95  energy= 5.51695215391893   | 5.4791549691272    | 5.55474933871066   occ= 0
MO #96  energy= 5.52346137090502   | 5.47501348383912   | 5.57190933581616   occ= 0
MO #97  energy= 5.52604090142777   | 5.47986195695334   | 5.57222043932705   occ= 0
MO #98  energy= 5.52604090142777   | 5.47986195695336   | 5.57222043932707   occ= 0
MO #99  energy= 5.52741153815231   | 5.48176713355844   | 5.57305647740138   occ= 0
MO #100 energy= 7.13165205521186   | 7.07719416239615   | 7.18610900007959   occ= 0
MO #101 energy= 7.13750117481543   | 7.11581863885903   | 7.15918371077181   occ= 0
MO #102 energy= 7.15181169505684   | 7.09970233424987   | 7.20392107352448   occ= 0
MO #103 energy= 7.1518116950569    | 7.09970233424999   | 7.20392107352448   occ= 0
MO #104 energy= 7.1581085609703    | 7.10706327773452   | 7.20915414756329   occ= 0
MO #105 energy= 8.25388465941548   | 8.21563164014504   | 8.2921376826347    occ= 0
MO #106 energy= 10.7599157971618   | 10.7117417264974   | 10.8080898678261   occ= 0
MO #107 energy= 10.7599157971618   | 10.7117417264974   | 10.8080898678261   occ= 0
MO #108 energy= 10.7755046264171   | 10.7225357061106   | 10.8284735467235   occ= 0
MO #109 energy= 10.7767875722678   | 10.7023331525778   | 10.8512419919577   occ= 0
MO #110 energy= 10.7856683761708   | 10.7167793040867   | 10.854557448255    occ= 0
MO #111 energy= 10.7856683761709   | 10.7167793040867   | 10.854557448255    occ= 0
MO #112 energy= 10.7888142523759   | 10.719393040632    | 10.8582354641197   occ= 0
MO #113 energy= 11.4859984583978   | 11.4526593967759   | 11.5193375200196   occ= 0
MO #114 energy= 11.4859984583978   | 11.452659396776    | 11.5193375200196   occ= 0
MO #115 energy= 11.5173623935852   | 11.4745132458335   | 11.5602115413369   occ= 0
MO #116 energy= 15.1278212829251   | 15.0916305398504   | 15.1640131275632   occ= 0
MO #117 energy= 15.1282021526723   | 15.0912007438219   | 15.1652035615227   occ= 0
MO #118 energy= 15.1463019989551   | 15.1026577269292   | 15.1899467407908   occ= 0
MO #119 energy= 15.1463019989551   | 15.1026577269293   | 15.1899467407909   occ= 0
MO #120 energy= 15.1543384077988   | 15.1106351019576   | 15.1980417136399   occ= 0
MO #121 energy= 15.1642240678072   | 15.108254042716    | 15.2201941011663   occ= 0
MO #122 energy= 15.1668040967785   | 15.1132792838951   | 15.2203289601692   occ= 0
MO #123 energy= 15.1668040967785   | 15.1132792838951   | 15.2203289601693   occ= 0
MO #124 energy= 15.1682850608923   | 15.1155777291474   | 15.2209924411041   occ= 0
MO #125 energy= 15.8091056621243   | 15.7816149404737   | 15.8365963837749   occ= 0
MO #126 energy= 15.8091056621243   | 15.7816149404737   | 15.8365963837749   occ= 0
MO #127 energy= 15.8263943513266   | 15.7950529682133   | 15.8577357344399   occ= 0
MO #128 energy= 15.8280113599918   | 15.7951640502      | 15.8608586697835   occ= 0
MO #129 energy= 15.8383153939311   | 15.8046690816262   | 15.8719617062361   occ= 0
MO #130 energy= 15.8383153939312   | 15.8046690816262   | 15.8719617062361   occ= 0
MO #131 energy= 15.8422820498788   | 15.8088599675353   | 15.8757041322224   occ= 0
MO #132 energy= 15.8557479231012   | 15.8143418996122   | 15.8971539465902   occ= 0
MO #133 energy= 15.8562329335025   | 15.8157387011383   | 15.8967271658667   occ= 0
MO #134 energy= 15.8562329335025   | 15.8157387011383   | 15.8967271658668   occ= 0
MO #135 energy= 15.8566219809631   | 15.8167817886247   | 15.8964621733016   occ= 0
 ** Mulliken pop on meta-lowdin orthogonal AOs  **
 ** Mulliken pop  **
pop of  0V 3s        1.99967
pop of  0V 4s        0.00372
pop of  0V 5s        0.00011
pop of  0V 6s        0.00001
pop of  0V 7s        0.00000
pop of  0V 8s        0.00000
pop of  0V 9s        0.00001
pop of  0V 3px       1.99975
pop of  0V 3py       1.99975
pop of  0V 3pz       1.99970
pop of  0V 4px       0.00005
pop of  0V 4py       0.00005
pop of  0V 4pz       0.00014
pop of  0V 5px       0.00007
pop of  0V 5py       0.00007
pop of  0V 5pz       0.00008
pop of  0V 6px       0.00001
pop of  0V 6py       0.00001
pop of  0V 6pz       0.00002
pop of  0V 7px       0.00000
pop of  0V 7py       0.00000
pop of  0V 7pz       0.00000
pop of  0V 8px       0.00000
pop of  0V 8py       0.00000
pop of  0V 8pz       0.00000
pop of  0V 9px       0.00000
pop of  0V 9py       0.00000
pop of  0V 9pz       0.00000
pop of  0V 3dxy      0.99963
pop of  0V 3dyz      0.99920
pop of  0V 3dz^2     0.99532
pop of  0V 3dxz      0.99920
pop of  0V 3dx2-y2    0.00000
pop of  0V 4dxy      0.00004
pop of  0V 4dyz      0.00069
pop of  0V 4dz^2     0.00107
pop of  0V 4dxz      0.00069
pop of  0V 4dx2-y2    0.00000
pop of  0V 5dxy      0.00012
pop of  0V 5dyz      0.00002
pop of  0V 5dz^2     0.00001
pop of  0V 5dxz      0.00002
pop of  0V 5dx2-y2    0.00000
pop of  0V 6dxy      0.00002
pop of  0V 6dyz      0.00002
pop of  0V 6dz^2     0.00002
pop of  0V 6dxz      0.00002
pop of  0V 6dx2-y2    0.00000
pop of  0V 7dxy      0.00017
pop of  0V 7dyz      0.00005
pop of  0V 7dz^2     0.00002
pop of  0V 7dxz      0.00005
pop of  0V 7dx2-y2    0.00000
pop of  0V 8dxy      0.00001
pop of  0V 8dyz      0.00000
pop of  0V 8dz^2     0.00000
pop of  0V 8dxz      0.00000
pop of  0V 8dx2-y2    0.00000
pop of  0V 4fy^3     0.00002
pop of  0V 4fxyz     0.00000
pop of  0V 4fyz^2    0.00000
pop of  0V 4fz^3     0.00001
pop of  0V 4fxz^2    0.00000
pop of  0V 4fzx^2    0.00000
pop of  0V 4fx^3     0.00002
pop of  0V 5fy^3     0.00005
pop of  0V 5fxyz     0.00000
pop of  0V 5fyz^2    0.00001
pop of  0V 5fz^3     0.00003
pop of  0V 5fxz^2    0.00001
pop of  0V 5fzx^2    0.00000
pop of  0V 5fx^3     0.00005
pop of  0V 6fy^3     0.00004
pop of  0V 6fxyz     0.00000
pop of  0V 6fyz^2    0.00000
pop of  0V 6fz^3     0.00001
pop of  0V 6fxz^2    0.00000
pop of  0V 6fzx^2    0.00000
pop of  0V 6fx^3     0.00004
pop of  0V 7fy^3     0.00000
pop of  0V 7fxyz     0.00000
pop of  0V 7fyz^2    0.00000
pop of  0V 7fz^3     0.00000
pop of  0V 7fxz^2    0.00000
pop of  0V 7fzx^2    0.00000
pop of  0V 7fx^3     0.00000
pop of  0V 5g-4      0.00000
pop of  0V 5g-3      0.00000
pop of  0V 5g-2      0.00000
pop of  0V 5g-1      0.00000
pop of  0V 5g 0      0.00000
pop of  0V 5g 1      0.00000
pop of  0V 5g 2      0.00000
pop of  0V 5g 3      0.00000
pop of  0V 5g 4      0.00000
pop of  0V 6g-4      0.00000
pop of  0V 6g-3      0.00000
pop of  0V 6g-2      0.00000
pop of  0V 6g-1      0.00000
pop of  0V 6g 0      0.00000
pop of  0V 6g 1      0.00000
pop of  0V 6g 2      0.00000
pop of  0V 6g 3      0.00000
pop of  0V 6g 4      0.00001
pop of  0V 7g-4      0.00000
pop of  0V 7g-3      0.00000
pop of  0V 7g-2      0.00000
pop of  0V 7g-1      0.00000
pop of  0V 7g 0      0.00001
pop of  0V 7g 1      0.00000
pop of  0V 7g 2      0.00000
pop of  0V 7g 3      0.00000
pop of  0V 7g 4      0.00001
pop of  0V 6h-5      0.00000
pop of  0V 6h-4      0.00000
pop of  0V 6h-3      0.00000
pop of  0V 6h-2      0.00000
pop of  0V 6h-1      0.00000
pop of  0V 6h 0      0.00000
pop of  0V 6h 1      0.00000
pop of  0V 6h 2      0.00000
pop of  0V 6h 3      0.00000
pop of  0V 6h 4      0.00000
pop of  0V 6h 5      0.00000
pop of  0V 7h-5      0.00000
pop of  0V 7h-4      0.00000
pop of  0V 7h-3      0.00000
pop of  0V 7h-2      0.00000
pop of  0V 7h-1      0.00000
pop of  0V 7h 0      0.00000
pop of  0V 7h 1      0.00000
pop of  0V 7h 2      0.00000
pop of  0V 7h 3      0.00000
pop of  0V 7h 4      0.00000
pop of  0V 7h 5      0.00000
 ** Mulliken atomic charges  **
charge of  0V =      1.00000

******** <class 'pyscf.mcscf.mc1step.CASSCF'> flags ********
CAS (4e+0e, 6o), ncore = 4, nvir = 125
max_cycle_macro = 50
max_cycle_micro = 4
conv_tol = 1e-07
conv_tol_grad = None
orbital rotation max_stepsize = 0.02
augmented hessian ah_max_cycle = 30
augmented hessian ah_conv_tol = 1e-12
augmented hessian ah_linear dependence = 1e-14
augmented hessian ah_level shift = 0
augmented hessian ah_start_tol = 2.5
augmented hessian ah_start_cycle = 3
augmented hessian ah_grad_trust_region = 3
kf_trust_region = 3
kf_interval = 4
ci_response_space = 4
ci_grad_trust_region = 3
with_dep4 0
natorb = False
canonicalization = True
chkfile = ./scratch/138468/tmpNk5pgy
max_memory 4000 MB (current use 787 MB)
internal_rotation = False

******** SHCI flags ********
executable             = /home/bamu3429/softwares/dice/Dice
mpiprefix              = mpirun -np 28
scratchDirectory       = ./scratch/138468
integralFile           = ./FCIDUMP
configFile             = ./input.dat
outputFile             = ./output.dat
maxIter                = 6
sweep_iter             = []
sweep_epsilon          = []
nPTiter                = 0
Stochastic             = True
fullrestart            = False
restart                = False
num_thrds              = 12
memory                 = None

CASCI E = -70.4775031156608  S^2 = 6.0000000
Set conv_tol_grad to 0.000316228
macro iter 1 (11 JK  3 micro), CASSCF E = -70.4775056847911  dE = -2.5691303e-06  S^2 = 6.0000000
               |grad[o]|=0.00317  |grad[c]|= None  |ddm|=0.00308
macro iter 2 (3 JK  1 micro), CASSCF E = -70.4775056992366  dE = -1.4445476e-08  S^2 = 6.0000000
               |grad[o]|=6.26e-05  |grad[c]|= None  |ddm|=    0
1-step CASSCF converged in 2 macro (14 JK 4 micro) steps
CASSCF canonicalization
CASSCF energy = -70.4775056992366


--------------------------------------------------
                 ICMPSPT CALCULATION              
--------------------------------------------------

Perturbation type: MRLCC
With fully internally contracted scheme
With third order correction

Preparing necessary RDMs
......production of RDMs took       2.92 sec
Reading binary 4RDM from DICE
......reading the RDM took          1.06 sec

(GOOD) Trace 4RDM:     24.0 =    4*    3*    2*    1
(GOOD) Trace 3RDM:     24.0 =    4*    3*    2
(GOOD) Trace 2RDM:     12.0 =    4*    3
(GOOD) Trace 1RDM:      4.0 =    4

Producing the integrals
......production of INT took     469.93 sec

Energy_core =  -64.5046410642
Energy      =  -70.4775056992

WARNING: Have to use natural orbitals from CAASCF
         offdiagonal elements: 0.675734584474

Basic ingredients written to int/
......savings of INGREDIENTS took     179.76 sec

Second-order:
perturber CCVV --        -0.155219225
perturber CCAV --        -0.062774770
perturber ACVV --        -0.169043130
perturber CCAA --        -0.013722957
perturber AAVV --        -0.054889786
perturber CAAV --        -0.067407621
perturber AAAV --        -0.000251424
perturber AAAC --        -0.000017781
Total:                   -0.523326693

Third-order:             -0.001741426

Total PT       --        -0.525068120

