 &FCI NORB=6 ,NELEC=10 ,MS2=0,
  ORBSYM=1,1,1,1,1,1,
  ISYM=1,
 &END
  1.015336985832e+00    1  1  1  1
  1.360580663440e-08    2  1  1  1
  3.877023316218e-02    2  1  2  1
  9.377966844929e-01    2  2  1  1
  2.180273748055e-08    2  2  2  1
  1.015336996877e+00    2  2  2  2
 -2.864805734869e-07    3  1  1  1
 -3.697477998623e-05    3  1  2  1
  1.853219922952e-04    3  1  2  2
  3.884223255210e-02    3  1  3  1
  7.002585717320e-05    3  2  1  1
 -9.601943769631e-05    3  2  2  1
  5.262320986057e-07    3  2  2  2
  4.965569544692e-04    3  2  3  1
  3.868087392572e-02    3  2  3  2
  9.376533054707e-01    3  3  1  1
 -9.884996811892e-04    3  3  2  1
  9.379745639615e-01    3  3  2  2
  7.161537409427e-08    3  3  3  1
  1.094700558660e-07    3  3  3  2
  1.015336697653e+00    3  3  3  3
 -1.750993709867e-06    4  1  1  1
 -4.848042556158e-05    4  1  2  1
 -1.684896111872e-04    4  1  2  2
  4.542297598679e-04    4  1  3  1
  1.877797980425e-02    4  1  3  2
  2.419168615088e-04    4  1  3  3
  4.159048655326e-02    4  1  4  1
  9.359767262605e-05    4  2  1  1
  8.548677146046e-05    4  2  2  1
  3.185345194541e-06    4  2  2  2
 -1.570745585702e-02    4  2  3  1
 -5.449134321116e-04    4  2  3  2
 -2.651983504223e-04    4  2  3  3
 -5.177948670284e-04    4  2  4  1
  3.536822247776e-02    4  2  4  2
 -9.036045423811e-04    4  3  1  1
 -3.057524743489e-03    4  3  2  1
  1.085810070493e-03    4  3  2  2
 -1.207207887063e-04    4  3  3  1
  1.329290585758e-04    4  3  3  2
 -8.187982816476e-07    4  3  3  3
  1.300378957969e-04    4  3  4  1
  1.024511289133e-04    4  3  4  2
  2.189495820395e-02    4  3  4  3
  9.321849601876e-01    4  4  1  1
  1.031227886997e-03    4  4  2  1
  9.445766641651e-01    4  4  2  2
 -2.598549074762e-04    4  4  3  1
 -2.049970284754e-04    4  4  3  2
  9.715419976626e-01    4  4  3  3
  2.029172831579e-07    4  4  4  1
  5.265349011078e-07    4  4  4  2
 -7.683236754235e-07    4  4  4  3
  1.015327409257e+00    4  4  4  4
 -6.625926692655e-07    5  1  1  1
 -2.628295064326e-05    5  1  2  1
 -2.268362869339e-05    5  1  2  2
  1.268523240577e-03    5  1  3  1
  7.071122430191e-03    5  1  3  2
  6.229868395430e-05    5  1  3  3
  7.635193006488e-03    5  1  4  1
 -1.177144139987e-03    5  1  4  2
  4.325832009303e-05    5  1  4  3
 -3.886470362107e-05    5  1  4  4
  2.424175567727e-02    5  1  5  1
  5.097422324627e-05    5  2  1  1
  1.067339990247e-05    5  2  2  1
 -2.488523802392e-06    5  2  2  2
  1.258725381986e-02    5  2  3  1
 -1.838559433916e-03    5  2  3  2
  7.366066581636e-05    5  2  3  3
 -2.044504565343e-03    5  2  4  1
 -1.125899841306e-02    5  2  4  2
 -1.144491812416e-04    5  2  4  3
 -1.225340351765e-04    5  2  4  4
  2.133224604582e-05    5  2  5  1
  3.060996564909e-02    5  2  5  2
 -2.533887908360e-03    5  3  1  1
 -1.964592246607e-02    5  3  2  1
  3.676931904351e-03    5  3  2  2
 -3.013191260583e-05    5  3  3  1
 -3.478691823854e-05    5  3  3  2
 -3.048236804602e-06    5  3  3  3
 -1.195459614834e-04    5  3  4  1
 -1.149632136685e-05    5  3  4  2
  3.623824278402e-03    5  3  4  3
 -1.142814795531e-03    5  3  4  4
 -3.620483232523e-05    5  3  5  1
 -6.683922686698e-05    5  3  5  2
  4.400212245429e-02    5  3  5  3
 -1.525136271746e-02    5  4  1  1
  3.219607395356e-03    5  4  2  1
  2.251664382165e-02    5  4  2  2
  7.638114184952e-05    5  4  3  1
  1.259522621756e-04    5  4  3  2
 -7.265321547566e-03    5  4  3  3
  2.020879959598e-05    5  4  4  1
  6.317098123433e-05    5  4  4  2
  5.702747319670e-04    5  4  4  3
 -1.618162177246e-05    5  4  4  4
  3.590898700287e-05    5  4  5  1
 -8.589600178002e-05    5  4  5  2
  9.190632934316e-05    5  4  5  3
  4.457375615901e-02    5  4  5  4
  9.668638713657e-01    5  5  1  1
 -4.263413608644e-05    5  5  2  1
  9.541356032651e-01    5  5  2  2
  7.234617932282e-05    5  5  3  1
  1.336086245121e-04    5  5  3  2
  9.273043935301e-01    5  5  3  3
 -7.275169485338e-05    5  5  4  1
  1.701524212830e-04    5  5  4  2
 -1.809860057848e-04    5  5  4  3
  9.261778881222e-01    5  5  4  4
 -5.578055555974e-07    5  5  5  1
 -1.245409866442e-06    5  5  5  2
  1.852003390129e-06    5  5  5  3
  1.128937847876e-05    5  5  5  4
  1.015354286012e+00    5  5  5  5
  8.582882498946e-06    6  1  1  1
 -1.303456213153e-05    6  1  2  1
 -7.905362439043e-06    6  1  2  2
  2.044597324061e-04    6  1  3  1
  1.157509253086e-03    6  1  3  2
  1.476418611353e-05    6  1  3  3
  1.249153752336e-03    6  1  4  1
 -1.899702113875e-04    6  1  4  2
  8.338462776079e-06    6  1  4  3
 -5.045415670669e-06    6  1  4  4
  4.807945809910e-04    6  1  5  1
  1.280361215918e-06    6  1  5  2
  3.203153700890e-06    6  1  5  3
 -3.029363226893e-06    6  1  5  4
  3.738846947853e-06    6  1  5  5
  2.915789562616e-02    6  1  6  1
 -2.939726475356e-06    6  2  1  1
 -1.053825509780e-05    6  2  2  1
  3.301919702595e-05    6  2  2  2
  1.157434417063e-03    6  2  3  1
 -1.707992851560e-04    6  2  3  2
  1.497348303437e-05    6  2  3  3
 -1.899053952857e-04    6  2  4  1
 -1.035948562256e-03    6  2  4  2
 -7.328123091332e-06    6  2  4  3
  2.680495670017e-06    6  2  4  4
  1.271091667744e-06    6  2  5  1
  8.555739534769e-04    6  2  5  2
  1.070236360286e-05    6  2  5  3
  1.261293609219e-05    6  2  5  4
  6.508652306579e-06    6  2  5  5
 -1.809736442652e-07    6  2  6  1
  2.915897720942e-02    6  2  6  2
  2.043518551941e-04    6  3  1  1
  1.157181519204e-03    6  3  2  1
 -1.708108053122e-04    6  3  2  2
  1.214250856246e-05    6  3  3  1
  4.880589059082e-06    6  3  3  2
 -1.008046283383e-04    6  3  3  3
  8.540989513580e-06    6  3  4  1
 -7.364027348597e-06    6  3  4  2
 -2.136947694994e-04    6  3  4  3
 -3.036944593224e-05    6  3  4  4
  3.456159677838e-06    6  3  5  1
  1.070488091194e-05    6  3  5  2
 -1.333722957649e-03    6  3  5  3
  2.101100941231e-05    6  3  5  4
  9.735745364880e-05    6  3  5  5
 -1.001029534790e-06    6  3  6  1
 -7.200892188754e-09    6  3  6  2
  2.916173615549e-02    6  3  6  3
  1.241477731322e-03    6  4  1  1
 -1.898970471546e-04    6  4  2  1
 -1.043034278289e-03    6  4  2  2
  8.223165440889e-06    6  4  3  1
 -7.305888014071e-06    6  4  3  2
 -2.210459705062e-04    6  4  3  3
 -7.677843611360e-06    6  4  4  1
 -7.506802412313e-06    6  4  4  2
 -3.039176649421e-05    6  4  4  3
 -6.286940099611e-04    6  4  4  4
 -3.032198926894e-06    6  4  5  1
  1.229215876907e-05    6  4  5  2
  2.102699123969e-05    6  4  5  3
 -1.203698618120e-03    6  4  5  4
  6.118263504015e-04    6  4  5  5
  1.791782029056e-08    6  4  6  1
  8.721234500669e-07    6  4  6  2
  5.314098623377e-08    6  4  6  3
  2.916181183012e-02    6  4  6  4
  4.787688091941e-04    6  5  1  1
  1.228744972223e-06    6  5  2  1
  8.536015138015e-04    6  5  2  2
  3.507850213317e-06    6  5  3  1
  1.069821162575e-05    6  5  3  2
 -1.336237754075e-03    6  5  3  3
 -3.041315015200e-06    6  5  4  1
  1.229682408270e-05    6  5  4  2
  2.103001773814e-05    6  5  4  3
 -1.206196000271e-03    6  5  4  4
  1.033836344565e-06    6  5  5  1
 -3.811465019521e-06    6  5  5  2
  9.745930931546e-05    6  5  5  3
  6.193224064017e-04    6  5  5  4
  1.197662062127e-03    6  5  5  5
 -5.813910728936e-08    6  5  6  1
 -7.170121562772e-07    6  5  6  2
  1.974187448676e-07    6  5  6  3
 -1.281354874258e-07    6  5  6  4
  2.915725670294e-02    6  5  6  5
  6.870516626579e-01    6  6  1  1
 -3.170273095642e-07    6  6  2  1
  6.870535739999e-01    6  6  2  2
 -1.754752871616e-06    6  6  3  1
 -1.308613931390e-08    6  6  3  2
  6.870583612837e-01    6  6  3  3
  3.087619105946e-08    6  6  4  1
  1.528972489114e-06    6  6  4  2
  9.250129440611e-08    6  6  4  3
  6.870584963485e-01    6  6  4  4
 -1.021581501385e-07    6  6  5  1
 -1.256957297510e-06    6  6  5  2
  3.443099329589e-07    6  6  5  3
 -2.328057041313e-07    6  6  5  4
  6.870505564053e-01    6  6  5  5
  1.005348164862e-06    6  6  6  1
  3.457324073187e-06    6  6  6  2
 -2.894414057242e-07    6  6  6  3
 -3.735374788640e-06    6  6  6  4
 -2.825465225357e-06    6  6  6  5
  5.714822960704e-01    6  6  6  6
 -9.217689336205e+00    1  1  0  0
 -1.302926126780e-07    2  1  0  0
 -9.217674196127e+00    2  2  0  0
  2.403009931621e-06    3  1  0  0
  7.281681521366e-07    3  2  0  0
 -9.217664443675e+00    3  3  0  0
  8.763079727451e-07    4  1  0  0
 -2.253073216027e-06    4  2  0  0
  3.653017527902e-07    4  3  0  0
 -9.217662459229e+00    4  4  0  0
  4.741749271748e-07    5  1  0  0
  1.642323676192e-06    5  2  0  0
  9.732061502435e-07    5  3  0  0
  4.975555453758e-06    5  4  0  0
 -9.217689660719e+00    5  5  0  0
 -2.471828441255e-05    6  1  0  0
 -9.493951210492e-05    6  2  0  0
  5.687224541566e-07    6  3  0  0
  6.964464213255e-05    6  4  0  0
  2.126043591187e-05    6  5  0  0
 -6.199039231160e+00    6  6  0  0
   -146.248380896473   0  0  0  0
