#INFO: **** input file is /projects/bamu3429/BENCHMARK/fresh_atoms/MRPT/atoms/Cu_1/mrpt.py ****
import json
from pyscf import gto,scf,mcscf, fci, lo, ci, cc
from pyscf.scf import ROHF, UHF,ROKS
import numpy as np
import pandas as pd

# THIS IS WERE IT STARTS ====================================

df=json.load(open("../../trail.json"))

spins={'Sc':1, 'Ti':2, 'V':3, 'Cr':6, 'Mn':5, 'Fe':4, 'Cu':1}

nd={'Sc':(1,0), 'Ti':(2,0), 'V':(3,0), 'Cr':(5,0), 'Mn':(5,0), 'Fe':(5,1), 'Cu':(5,5)}

cas={'Sc':3, 'Ti':4, 'V':5, 'Cr':6, 'Mn':7, 'Fe':8, 'Cu':11}

datacsv={}
for nm in ['atom','charge','method','basis','pseudopotential','hf',
           'totalenergy','totalenergy-stocherr','totalenergy-syserr']:
  datacsv[nm]=[]

basis='vdz'
el='Cu'
charge=1

mol=gto.Mole()
mol.ecp={}
mol.basis={}
mol.ecp[el]=gto.basis.parse_ecp(df[el]['ecp'])
mol.basis[el]=gto.basis.parse(df[el][basis])
mol.charge=charge
if el == 'Cr' or el == 'Cu':
  mol.spin=spins[el]-charge
else:
  mol.spin=spins[el]+charge
mol.build(atom="%s 0. 0. 0."%el,verbose=4)

m=ROHF(mol)
m.level_shift=1000.0
dm=m.from_chk("../../../HF/atoms/"+el+basis+str(charge)+".chk")
hf=m.kernel(dm)
m.analyze()

from pyscf.shciscf import shci
mc = shci.SHCISCF(m, 6, cas[el]-charge)
#mc.fcisolver.conv_tol = 1e-14
mc.fcisolver.mpiprefix="mpirun -np 28"
mc.fcisolver.num_thrds=12
mc.verbose = 4
cas=mc.kernel()[0]
 
from pyscf.icmpspt import icmpspt
pt=icmpspt.icmpspt(mc,rdmM=500, PTM=1000,\
                          pttype="MRLCC",\
                          third_order=True,\
                          fully_ic=True,\
                          do_dm4=True)

datacsv['atom'].append(el)
datacsv['charge'].append(charge)
datacsv['method'].append('MRPT')
datacsv['basis'].append(basis)
datacsv['pseudopotential'].append('trail')
datacsv['hf'].append(hf)
datacsv['totalenergy'].append(cas+pt)
datacsv['totalenergy-stocherr'].append(0.0)
datacsv['totalenergy-syserr'].append(0.0)
pd.DataFrame(datacsv).to_csv(el+".csv",index=False)

#INFO: ******************** input file end ********************


System: ('Linux', 'bnode0308.rc.int.colorado.edu', '3.10.0-514.41.1.el7.x86_64', '#1 SMP Wed Jan 17 10:26:16 EST 2018', 'x86_64', 'x86_64')  Threads 1
Python 2.7.11 (default, Mar 22 2016, 01:42:54) 
[GCC Intel(R) C++ gcc 4.8 mode]
numpy 1.11.1  scipy 0.17.1
Date: Fri Mar 23 16:24:55 2018
PySCF version 1.4
PySCF path  /projects/bamu3429/softwares/pyscf_uptodate/pyscf
GIT ORIG_HEAD e2292e6edec2b0e0024c21b81de03db1d7bd4121
GIT HEAD      ref: refs/heads/master
GIT master branch  f3591ef22170896a4cdc2aadaa6f5da388ffcadb

[INPUT] VERBOSE 4
[INPUT] num atoms = 1
[INPUT] num electrons = 18
[INPUT] charge = 1
[INPUT] spin (= nelec alpha-beta = 2S) = 0
[INPUT] symmetry False subgroup None
[INPUT]  1 Cu     0.000000000000   0.000000000000   0.000000000000 AA    0.000000000000   0.000000000000   0.000000000000 Bohr
[INPUT] ---------------- BASIS SET ---------------- 
[INPUT] l, kappa, [nprim/nctr], expnt,             c_1 c_2 ...
[INPUT] Cu
[INPUT] 0    0    [12   /1   ]  56.69692001       0.003858
                                20.1703448        -1.511163
                                16.89311889       5.262467
                                14.81117613       -4.140408
                                6.02025146        0.066973
                                2.45829434        0.59039
                                1.29773244        0.435
                                0.73258474        0.171005
                                0.2960966         0.014654
                                0.13350445        -0.001059
                                0.05975279        0.002343
                                0.0277617         7.2e-05
[INPUT] 0    0    [12   /1   ]  56.69692001       -0.000329
                                20.1703448        0.271255
                                16.89311889       -0.991333
                                14.81117613       0.80309
                                6.02025146        -0.009798
                                2.45829434        -0.162788
                                1.29773244        -0.157463
                                0.73258474        -0.146178
                                0.2960966         0.068557
                                0.13350445        0.45286
                                0.05975279        0.4989
                                0.0277617         0.13834
[INPUT] 0    0    [12   /1   ]  56.69692001       -0.002105
                                20.1703448        1.042902
                                16.89311889       -3.903361
                                14.81117613       3.253774
                                6.02025146        -0.265439
                                2.45829434        -0.912125
                                1.29773244        0.037508
                                0.73258474        0.288641
                                0.2960966         0.79856
                                0.13350445        0.406567
                                0.05975279        -0.520049
                                0.0277617         -0.530268
[INPUT] 0    0    [1    /1   ]  0.0277617            1
[INPUT] 0    0    [1    /1   ]  0.01289834           1
[INPUT] 1    0    [12   /1   ]  84.11621248       0.00021
                                41.67010486       -0.003354
                                20.84027636       0.054507
                                13.1175259        -0.185677
                                7.96834211        0.1136
                                4.08681185        0.286879
                                2.29416473        0.386568
                                1.21038981        0.304256
                                0.60503887        0.104511
                                0.23373223        0.008916
                                0.0905483         -0.000333
                                0.03498335        0.000208
[INPUT] 1    0    [12   /1   ]  84.11621248       4e-06
                                41.67010486       0.000359
                                20.84027636       -0.009409
                                13.1175259        0.03575
                                7.96834211        -0.025333
                                4.08681185        -0.064167
                                2.29416473        -0.086609
                                1.21038981        -0.086359
                                0.60503887        0.027529
                                0.23373223        0.324015
                                0.0905483         0.541358
                                0.03498335        0.260105
[INPUT] 1    0    [12   /1   ]  84.11621248       -0.000321
                                41.67010486       0.000199
                                20.84027636       0.04701
                                13.1175259        -0.273823
                                7.96834211        0.324037
                                4.08681185        0.758464
                                2.29416473        -0.019131
                                1.21038981        -0.776778
                                0.60503887        -0.428283
                                0.23373223        0.617543
                                0.0905483         0.395771
                                0.03498335        -0.001478
[INPUT] 1    0    [1    /1   ]  0.03498335           1
[INPUT] 1    0    [1    /1   ]  0.01351582           1
[INPUT] 2    0    [10   /1   ]  85.06963135       0.000306
                                37.22826442       -0.00619
                                15.61164981       0.135912
                                9.50636668        0.057336
                                5.30208049        0.240495
                                2.49612499        0.317037
                                1.13949453        0.29791
                                0.51100337        0.208077
                                0.230497          0.090388
                                0.11275594        0.026692
[INPUT] 2    0    [10   /1   ]  85.06963135       -7e-05
                                37.22826442       0.0059
                                15.61164981       -0.160721
                                9.50636668        -0.065337
                                5.30208049        -0.371031
                                2.49612499        -0.226835
                                1.13949453        0.189032
                                0.51100337        0.400876
                                0.230497          0.293272
                                0.11275594        0.143387
[INPUT] 2    0    [1    /1   ]  0.11275594           1
[INPUT] 2    0    [1    /1   ]  0.05515864           1
[INPUT] 3    0    [1    /1   ]  3.88318              1
[INPUT] 3    0    [1    /1   ]  1.89959783           1
nuclear repulsion = 0
number of shells = 16
number of NR pGTOs = 276
number of NR cGTOs = 54
basis = {'Cu': [[0, [56.69692001, 0.003858], [20.1703448, -1.511163], [16.89311889, 5.262467], [14.81117613, -4.140408], [6.02025146, 0.066973], [2.45829434, 0.59039], [1.29773244, 0.435], [0.73258474, 0.171005], [0.2960966, 0.014654], [0.13350445, -0.001059], [0.05975279, 0.002343], [0.0277617, 7.2e-05]], [0, [56.69692001, -0.000329], [20.1703448, 0.271255], [16.89311889, -0.991333], [14.81117613, 0.80309], [6.02025146, -0.009798], [2.45829434, -0.162788], [1.29773244, -0.157463], [0.73258474, -0.146178], [0.2960966, 0.068557], [0.13350445, 0.45286], [0.05975279, 0.4989], [0.0277617, 0.13834]], [0, [56.69692001, -0.002105], [20.1703448, 1.042902], [16.89311889, -3.903361], [14.81117613, 3.253774], [6.02025146, -0.265439], [2.45829434, -0.912125], [1.29773244, 0.037508], [0.73258474, 0.288641], [0.2960966, 0.79856], [0.13350445, 0.406567], [0.05975279, -0.520049], [0.0277617, -0.530268]], [0, [0.0277617, 1.0]], [0, [0.01289834, 1.0]], [1, [84.11621248, 0.00021], [41.67010486, -0.003354], [20.84027636, 0.054507], [13.1175259, -0.185677], [7.96834211, 0.1136], [4.08681185, 0.286879], [2.29416473, 0.386568], [1.21038981, 0.304256], [0.60503887, 0.104511], [0.23373223, 0.008916], [0.0905483, -0.000333], [0.03498335, 0.000208]], [1, [84.11621248, 4e-06], [41.67010486, 0.000359], [20.84027636, -0.009409], [13.1175259, 0.03575], [7.96834211, -0.025333], [4.08681185, -0.064167], [2.29416473, -0.086609], [1.21038981, -0.086359], [0.60503887, 0.027529], [0.23373223, 0.324015], [0.0905483, 0.541358], [0.03498335, 0.260105]], [1, [84.11621248, -0.000321], [41.67010486, 0.000199], [20.84027636, 0.04701], [13.1175259, -0.273823], [7.96834211, 0.324037], [4.08681185, 0.758464], [2.29416473, -0.019131], [1.21038981, -0.776778], [0.60503887, -0.428283], [0.23373223, 0.617543], [0.0905483, 0.395771], [0.03498335, -0.001478]], [1, [0.03498335, 1.0]], [1, [0.01351582, 1.0]], [2, [85.06963135, 0.000306], [37.22826442, -0.00619], [15.61164981, 0.135912], [9.50636668, 0.057336], [5.30208049, 0.240495], [2.49612499, 0.317037], [1.13949453, 0.29791], [0.51100337, 0.208077], [0.230497, 0.090388], [0.11275594, 0.026692]], [2, [85.06963135, -7e-05], [37.22826442, 0.0059], [15.61164981, -0.160721], [9.50636668, -0.065337], [5.30208049, -0.371031], [2.49612499, -0.226835], [1.13949453, 0.189032], [0.51100337, 0.400876], [0.230497, 0.293272], [0.11275594, 0.143387]], [2, [0.11275594, 1.0]], [2, [0.05515864, 1.0]], [3, [3.88318, 1.0]], [3, [1.89959783, 1.0]]]}
ecp = {'Cu': [10, [[-1, [[], [[19.87662576, 19.0]], [[18.71397328, 13322.8315411], [8.24597653, -143.81933419], [17.99726398, -6835.89401414], [19.50653533, -6413.73731394]], [[9.35936389, 377.6558895]]]], [0, [[], [], [[12.04327682, 217421.85846016], [11.98352277, -215987.47192743], [9.67744501, 1647.53099822], [17.5806873, -5124.79596488], [17.5092588, -963.5691239], [19.80724162, 3071.81011765]], []]], [1, [[], [], [[15.48559732, 189560.54470794], [15.42430413, -181115.65838446], [17.81980355, -1937.67548293], [17.69074392, -2335.92086442], [17.98867265, -8634.52846732], [19.82460345, 4504.58524733]], []]], [2, [[], [], [[10.91448054, -5224.34215851], [14.69969344, -3653.65459704], [11.52370333, 8159.25189768], [19.81153965, -2763.94279097], [18.0197982, 6020.80732635], [14.46480052, -2560.14492979]], []]]]]}
CPU time:         0.60


******** <class 'pyscf.scf.rohf.ROHF'> flags ********
method = ROHF
initial guess = minao
damping factor = 0
level shift factor = 1000.0
DIIS = <class 'pyscf.scf.diis.CDIIS'>
DIIS start cycle = 1
DIIS space = 8
SCF tol = 1e-09
SCF gradient tol = None
max. SCF cycles = 50
direct_scf = True
direct_scf_tol = 1e-13
chkfile to save SCF result = /projects/bamu3429/BENCHMARK/fresh_atoms/MRPT/atoms/Cu_1/tmp_f9Gy0
max_memory 4000 MB (current use 81 MB)
num. doubly occ = 9  num. singly occ = 0
Set gradient conv threshold to 3.16228e-05
init E= -196.320758478193
  HOMO = -0.796998680020671  LUMO = 999.762903453112
cycle= 1 E= -196.320758478193  delta_E= 1.42e-13  |g|= 5.92e-06  |ddm|= 1.09e-08
  HOMO = -0.796998681262193  LUMO = -0.23709654686051
Extra cycle  E= -196.320758478202  delta_E= -8.9e-12  |g|= 1.51e-06  |ddm|= 7.22e-06
converged SCF energy = -196.320758478202
**** MO energy ****
                Roothaan           | alpha              | beta
MO #1   energy= -5.54045432488079  | -5.54045432488078  | -5.54045432488078  occ= 2
MO #2   energy= -3.81367881813418  | -3.81367881813418  | -3.81367881813418  occ= 2
MO #3   energy= -3.81367881189439  | -3.81367881189438  | -3.81367881189438  occ= 2
MO #4   energy= -3.81367874287354  | -3.81367874287353  | -3.81367874287353  occ= 2
MO #5   energy= -0.796999495196357 | -0.796999495196357 | -0.796999495196357 occ= 2
MO #6   energy= -0.796999375952544 | -0.796999375952543 | -0.796999375952543 occ= 2
MO #7   energy= -0.796999140047559 | -0.796999140047558 | -0.796999140047558 occ= 2
MO #8   energy= -0.796999131580935 | -0.796999131580936 | -0.796999131580936 occ= 2
MO #9   energy= -0.796998681262193 | -0.796998681262193 | -0.796998681262193 occ= 2
MO #10  energy= -0.23709654686051  | -0.237096546860512 | -0.237096546860512 occ= 0
MO #11  energy= -0.123429486158017 | -0.123429486158016 | -0.123429486158016 occ= 0
MO #12  energy= -0.123429484141066 | -0.123429484141068 | -0.123429484141068 occ= 0
MO #13  energy= -0.123429449960929 | -0.123429449960931 | -0.123429449960931 occ= 0
MO #14  energy= -0.0799039480205419 | -0.07990394802054  | -0.07990394802054  occ= 0
MO #15  energy= -0.0493976888543084 | -0.0493976888543095 | -0.0493976888543095 occ= 0
MO #16  energy= -0.0493976885331797 | -0.0493976885331793 | -0.0493976885331793 occ= 0
MO #17  energy= -0.0493976794485946 | -0.0493976794485954 | -0.0493976794485954 occ= 0
MO #18  energy= -0.00710193385525903 | -0.00710193385525788 | -0.00710193385525788 occ= 0
MO #19  energy= -0.00710193380036509 | -0.00710193380036384 | -0.00710193380036384 occ= 0
MO #20  energy= -0.00710191940587428 | -0.007101919405873 | -0.007101919405873 occ= 0
MO #21  energy= -0.00710191753663426 | -0.00710191753663526 | -0.00710191753663526 occ= 0
MO #22  energy= -0.00710189642176268 | -0.0071018964217623 | -0.0071018964217623 occ= 0
MO #23  energy= 0.0640854460760886 | 0.064085446076095  | 0.064085446076095  occ= 0
MO #24  energy= 0.129477066545726  | 0.129477066545726  | 0.129477066545726  occ= 0
MO #25  energy= 0.129477067027353  | 0.12947706702735   | 0.12947706702735   occ= 0
MO #26  energy= 0.129477088647939  | 0.129477088647937  | 0.129477088647937  occ= 0
MO #27  energy= 0.279355534509239  | 0.279355534509234  | 0.279355534509234  occ= 0
MO #28  energy= 0.279355535425948  | 0.279355535425947  | 0.279355535425947  occ= 0
MO #29  energy= 0.279355553231372  | 0.279355553231372  | 0.279355553231372  occ= 0
MO #30  energy= 0.279355558249794  | 0.279355558249794  | 0.279355558249794  occ= 0
MO #31  energy= 0.279355651253557  | 0.279355651253559  | 0.279355651253559  occ= 0
MO #32  energy= 1.82799375440494   | 1.82799375440494   | 1.82799375440494   occ= 0
MO #33  energy= 2.51779867079827   | 2.51779867079827   | 2.51779867079827   occ= 0
MO #34  energy= 2.51779873195656   | 2.51779873195656   | 2.51779873195656   occ= 0
MO #35  energy= 2.51779883697398   | 2.51779883697398   | 2.51779883697398   occ= 0
MO #36  energy= 2.51779884125622   | 2.51779884125622   | 2.51779884125622   occ= 0
MO #37  energy= 2.51779910216362   | 2.51779910216362   | 2.51779910216362   occ= 0
MO #38  energy= 4.5578539767304    | 4.55785397673041   | 4.55785397673041   occ= 0
MO #39  energy= 4.55785398366827   | 4.55785398366828   | 4.55785398366828   occ= 0
MO #40  energy= 4.5578540193422    | 4.5578540193422    | 4.5578540193422    occ= 0
MO #41  energy= 5.1757570036583    | 5.1757570036583    | 5.1757570036583    occ= 0
MO #42  energy= 5.17575700365969   | 5.17575700365969   | 5.17575700365969   occ= 0
MO #43  energy= 5.17575707717573   | 5.17575707717573   | 5.17575707717573   occ= 0
MO #44  energy= 5.17575707728098   | 5.17575707728099   | 5.17575707728099   occ= 0
MO #45  energy= 5.17575712077548   | 5.17575712077549   | 5.17575712077549   occ= 0
MO #46  energy= 5.17575712364293   | 5.17575712364293   | 5.17575712364293   occ= 0
MO #47  energy= 5.17575713737253   | 5.17575713737253   | 5.17575713737253   occ= 0
MO #48  energy= 13.8782732375065   | 13.8782732375065   | 13.8782732375065   occ= 0
MO #49  energy= 13.878273238838    | 13.878273238838    | 13.878273238838    occ= 0
MO #50  energy= 13.8782732617028   | 13.8782732617028   | 13.8782732617028   occ= 0
MO #51  energy= 13.8782732672112   | 13.8782732672112   | 13.8782732672112   occ= 0
MO #52  energy= 13.8782732862854   | 13.8782732862854   | 13.8782732862854   occ= 0
MO #53  energy= 13.8782733089006   | 13.8782733089006   | 13.8782733089006   occ= 0
MO #54  energy= 13.8782733090935   | 13.8782733090935   | 13.8782733090935   occ= 0
 ** Mulliken pop on meta-lowdin orthogonal AOs  **
 ** Mulliken pop  **
pop of  0Cu 3s        1.99995
pop of  0Cu 4s        0.00000
pop of  0Cu 5s        0.00005
pop of  0Cu 6s        0.00000
pop of  0Cu 7s        0.00000
pop of  0Cu 3px       1.99995
pop of  0Cu 3py       1.99995
pop of  0Cu 3pz       1.99995
pop of  0Cu 4px       0.00003
pop of  0Cu 4py       0.00003
pop of  0Cu 4pz       0.00003
pop of  0Cu 5px       0.00001
pop of  0Cu 5py       0.00001
pop of  0Cu 5pz       0.00001
pop of  0Cu 6px       0.00000
pop of  0Cu 6py       0.00000
pop of  0Cu 6pz       0.00000
pop of  0Cu 7px       0.00000
pop of  0Cu 7py       0.00000
pop of  0Cu 7pz       0.00000
pop of  0Cu 3dxy      1.99919
pop of  0Cu 3dyz      1.99919
pop of  0Cu 3dz^2     1.99919
pop of  0Cu 3dxz      1.99919
pop of  0Cu 3dx2-y2    1.99919
pop of  0Cu 4dxy      0.00067
pop of  0Cu 4dyz      0.00067
pop of  0Cu 4dz^2     0.00067
pop of  0Cu 4dxz      0.00067
pop of  0Cu 4dx2-y2    0.00067
pop of  0Cu 5dxy      0.00013
pop of  0Cu 5dyz      0.00013
pop of  0Cu 5dz^2     0.00013
pop of  0Cu 5dxz      0.00013
pop of  0Cu 5dx2-y2    0.00013
pop of  0Cu 6dxy      0.00000
pop of  0Cu 6dyz      0.00000
pop of  0Cu 6dz^2     0.00000
pop of  0Cu 6dxz      0.00000
pop of  0Cu 6dx2-y2    0.00000
pop of  0Cu 4fy^3     0.00000
pop of  0Cu 4fxyz     0.00000
pop of  0Cu 4fyz^2    0.00000
pop of  0Cu 4fz^3     0.00000
pop of  0Cu 4fxz^2    0.00000
pop of  0Cu 4fzx^2    0.00000
pop of  0Cu 4fx^3     0.00000
pop of  0Cu 5fy^3     0.00000
pop of  0Cu 5fxyz     0.00000
pop of  0Cu 5fyz^2    0.00000
pop of  0Cu 5fz^3     0.00000
pop of  0Cu 5fxz^2    0.00000
pop of  0Cu 5fzx^2    0.00000
pop of  0Cu 5fx^3     0.00000
 ** Mulliken atomic charges  **
charge of  0Cu =      1.00000

******** <class 'pyscf.mcscf.mc1step.CASSCF'> flags ********
CAS (5e+5e, 6o), ncore = 4, nvir = 44
max_cycle_macro = 50
max_cycle_micro = 4
conv_tol = 1e-07
conv_tol_grad = None
orbital rotation max_stepsize = 0.02
augmented hessian ah_max_cycle = 30
augmented hessian ah_conv_tol = 1e-12
augmented hessian ah_linear dependence = 1e-14
augmented hessian ah_level shift = 0
augmented hessian ah_start_tol = 2.5
augmented hessian ah_start_cycle = 3
augmented hessian ah_grad_trust_region = 3
kf_trust_region = 3
kf_interval = 4
ci_response_space = 4
ci_grad_trust_region = 3
with_dep4 0
natorb = False
canonicalization = True
chkfile = ./scratch/87070/tmpPneZO5
max_memory 4000 MB (current use 97 MB)
internal_rotation = False

******** SHCI flags ********
executable             = /home/bamu3429/softwares/dice/Dice
mpiprefix              = mpirun -np 28
scratchDirectory       = ./scratch/87070
integralFile           = ./FCIDUMP
configFile             = ./input.dat
outputFile             = ./output.dat
maxIter                = 6
sweep_iter             = []
sweep_epsilon          = []
nPTiter                = 0
Stochastic             = True
fullrestart            = False
restart                = False
num_thrds              = 12
memory                 = None

CASCI E = -196.320952660092  S^2 = 0.0000000
Set conv_tol_grad to 0.000316228
macro iter 1 (21 JK  4 micro), CASSCF E = -196.322071791966  dE = -0.0011191319  S^2 = 0.0000000
               |grad[o]|=0.000786  |grad[c]|= None  |ddm|=0.00164
macro iter 2 (21 JK  4 micro), CASSCF E = -196.323263908134  dE = -0.0011921162  S^2 = 0.0000000
               |grad[o]|=0.00257  |grad[c]|= None  |ddm|=0.000993
macro iter 3 (5 JK  1 micro), CASSCF E = -196.323276761883  dE = -1.2853748e-05  S^2 = 0.0000000
               |grad[o]|=0.000699  |grad[c]|= None  |ddm|=9.68e-05
macro iter 4 (5 JK  1 micro), CASSCF E = -196.323276965096  dE = -2.0321343e-07  S^2 = 0.0000000
               |grad[o]|=4.8e-05  |grad[c]|= None  |ddm|=2.75e-05
macro iter 5 (1 JK  1 micro), CASSCF E = -196.323276965096  dE = 0  S^2 = 0.0000000
               |grad[o]|=1.27e-05  |grad[c]|= None  |ddm|=    0
1-step CASSCF converged in 5 macro (53 JK 11 micro) steps
CASSCF canonicalization
CASSCF energy = -196.323276965096


--------------------------------------------------
                 ICMPSPT CALCULATION              
--------------------------------------------------

Perturbation type: MRLCC
With fully internally contracted scheme
With third order correction

Preparing necessary RDMs
......production of RDMs took       0.62 sec
Reading binary 4RDM from DICE
......reading the RDM took          0.96 sec

(GOOD) Trace 4RDM:   5040.0 =   10*    9*    8*    7
(GOOD) Trace 3RDM:    720.0 =   10*    9*    8
(GOOD) Trace 2RDM:     90.0 =   10*    9
(GOOD) Trace 1RDM:     10.0 =   10

Producing the integrals
......production of INT took      86.70 sec

Energy_core =  -146.248380896
Energy      =  -196.323276965

WARNING: Have to use natural orbitals from CAASCF
         offdiagonal elements: 1.22675486157

Basic ingredients written to int/
......savings of INGREDIENTS took      15.21 sec

Second-order:
perturber CCVV --        -0.071237251
perturber CCAV --        -0.010565262
perturber ACVV --        -0.202909325
perturber CCAA --        -0.000478528
perturber AAVV --        -0.354545447
perturber CAAV --        -0.032966846
perturber AAAV --        -0.004804964
perturber AAAC --        -0.000000000
Total:                   -0.677507623

Third-order:             -0.003384644

Total PT       --        -0.680892268

