 &FCI NORB=9 ,NELEC=9 ,MS2=3,
  ORBSYM=1,1,1,1,1,1,1,1,1,
  ISYM=1,
 &END
  6.496952496965e-01    1  1  1  1
  2.922157113822e-02    2  1  2  1
  5.883625078491e-01    2  2  1  1
  6.528219200138e-01    2  2  2  2
  2.922157113822e-02    3  1  3  1
  5.764593245231e-12    3  2  2  2
  2.924271738259e-02    3  2  3  2
  5.883625078491e-01    3  3  1  1
  5.943364852786e-01    3  3  2  2
 -5.764244913317e-12    3  3  3  2
  6.528219200138e-01    3  3  3  3
  1.553259365607e-02    4  1  1  1
  6.213374227060e-03    4  1  2  2
  6.213374227061e-03    4  1  3  3
  8.281707798875e-03    4  1  4  1
 -1.781264646246e-03    4  2  2  1
  2.059775799879e-06    4  2  3  1
  1.988516413966e-03    4  2  4  2
 -2.059775799922e-06    4  3  2  1
 -1.781264646246e-03    4  3  3  1
  1.988516413966e-03    4  3  4  3
  2.547292504726e-01    4  4  1  1
  2.314870981076e-01    4  4  2  2
  2.314870981076e-01    4  4  3  3
  1.207000643715e-02    4  4  4  1
  2.827986620777e-01    4  4  4  4
  3.711313198322e-04    5  1  2  2
  3.349904952663e-05    5  1  3  2
 -3.711313198319e-04    5  1  3  3
  9.527180809475e-03    5  1  5  1
 -1.860833161924e-03    5  2  2  1
 -1.393048822701e-04    5  2  3  1
  6.222960643948e-04    5  2  4  2
  4.567186549479e-05    5  2  4  3
  4.927018816128e-03    5  2  5  2
 -1.393048822701e-04    5  3  2  1
  1.860833161924e-03    5  3  3  1
  4.567186549476e-05    5  3  4  2
 -6.222960643948e-04    5  3  4  3
  4.927018816128e-03    5  3  5  3
  2.536326115812e-03    5  4  2  2
  1.855382827379e-04    5  4  3  2
 -2.536326115812e-03    5  4  3  3
  4.639583372868e-03    5  4  5  1
  1.210165264190e-02    5  4  5  4
  4.112461154125e-01    5  5  1  1
  3.459929408063e-01    5  5  2  2
  3.459929408063e-01    5  5  3  3
  4.452419751320e-02    5  5  4  1
  3.489104668942e-01    5  5  4  4
  7.083537670564e-01    5  5  5  5
 -3.349899721254e-05    6  1  2  2
  3.711314836583e-04    6  1  3  2
  3.349899721186e-05    6  1  3  3
 -3.301515593296e-11    6  1  5  1
  2.427711107713e-08    6  1  5  4
  9.527178782243e-03    6  1  6  1
  1.393049778507e-04    6  2  2  1
 -1.860832314857e-03    6  2  3  1
 -4.567189238920e-05    6  2  4  2
  6.222961330749e-04    6  2  4  3
  1.250817590387e-10    6  2  5  2
 -2.382411623970e-03    6  2  5  3
  4.927019480171e-03    6  2  6  2
 -1.860832314857e-03    6  3  2  1
 -1.393049778508e-04    6  3  3  1
  6.222961330749e-04    6  3  4  2
  4.567189238928e-05    6  3  4  3
  2.382411623970e-03    6  3  5  2
  1.250817635646e-10    6  3  5  3
  4.927019480171e-03    6  3  6  3
 -1.855382829611e-04    6  4  2  2
  2.536326868686e-03    6  4  3  2
  1.855382829636e-04    6  4  3  3
 -2.428165209530e-08    6  4  5  1
  6.238478761360e-11    6  4  5  4
  4.639583317273e-03    6  4  6  1
  1.210165704142e-02    6  4  6  4
 -4.661772979818e-10    6  5  1  1
 -2.988571105944e-10    6  5  2  2
 -2.988570730148e-10    6  5  3  3
 -7.635150523337e-11    6  5  4  1
 -7.710590169459e-11    6  5  4  4
 -8.464354491154e-10    6  5  5  5
  1.500146428247e-02    6  5  6  5
  4.112460878538e-01    6  6  1  1
  3.459929235300e-01    6  6  2  2
  3.459929235300e-01    6  6  3  3
  4.452419170208e-02    6  6  4  1
  3.489104587531e-01    6  6  4  4
  6.783507769260e-01    6  6  5  5
 -8.464349610714e-10    6  6  6  5
  7.083536439255e-01    6  6  6  6
  8.876578662672e-05    7  1  2  1
  9.506238975468e-03    7  1  3  1
 -2.408244846304e-06    7  1  4  2
 -4.249968588818e-04    7  1  4  3
  1.649269206435e-04    7  1  5  2
 -1.893397948764e-03    7  1  5  3
  1.893401538124e-03    7  1  6  2
  1.649264318004e-04    7  1  6  3
  1.299027422497e-02    7  1  7  1
  1.331449645100e-03    7  2  1  1
  1.850638443282e-03    7  2  2  2
  1.168231710427e-02    7  2  3  2
  1.633075234667e-03    7  2  3  3
 -1.473661800396e-04    7  2  4  1
 -3.656355442558e-04    7  2  4  4
 -1.616595287457e-04    7  2  5  1
 -2.251652918612e-04    7  2  5  4
 -8.619344768807e-04    7  2  5  5
 -1.828292454717e-03    7  2  6  1
 -2.540052969450e-03    7  2  6  4
  3.003780976417e-09    7  2  6  5
 -8.619355642561e-04    7  2  6  6
  1.188042770127e-02    7  2  7  2
  1.174508669825e-01    7  3  1  1
  1.469091605357e-01    7  3  2  2
  1.087815769222e-04    7  3  3  2
  1.702737895664e-01    7  3  3  3
 -1.501086317964e-02    7  3  4  1
 -3.866539970066e-02    7  3  4  4
  1.828299179922e-03    7  3  5  1
  2.540055604401e-03    7  3  5  4
 -9.449624493650e-02    7  3  5  5
 -1.616603052165e-04    7  3  6  1
 -2.251657306521e-04    7  3  6  4
  6.762414093795e-10    7  3  6  5
 -9.449622907201e-02    7  3  6  6
  1.439283650974e-03    7  3  7  2
  1.459806189342e-01    7  3  7  3
  1.248336552380e-05    7  4  2  1
  7.524739257194e-04    7  4  3  1
 -3.204995745672e-05    7  4  4  2
 -3.125900535443e-03    7  4  4  3
 -3.835878154209e-05    7  4  5  2
  4.359359384886e-04    7  4  5  3
 -4.359353287248e-04    7  4  6  2
 -3.835895198430e-05    7  4  6  3
 -9.804386855520e-05    7  4  7  1
  6.299380096265e-03    7  4  7  4
  2.909758934796e-04    7  5  2  1
 -3.432447863937e-03    7  5  3  1
 -8.127484326263e-05    7  5  4  2
  9.581533275654e-04    7  5  4  3
 -7.707125045325e-05    7  5  5  2
 -8.084259250606e-03    7  5  5  3
  3.714665385062e-03    7  5  6  2
 -3.603464076942e-05    7  5  6  3
  2.220507698046e-03    7  5  7  1
 -8.180912330015e-04    7  5  7  4
  1.871944075161e-02    7  5  7  5
  3.432459644060e-03    7  6  2  1
  2.909739261651e-04    7  6  3  1
 -9.581568153114e-04    7  6  4  2
 -8.127433031647e-05    7  6  4  3
 -3.714641565676e-03    7  6  5  2
  3.603948101353e-05    7  6  5  3
 -7.707604811949e-05    7  6  6  2
 -8.084234768776e-03    7  6  6  3
 -2.222583892430e-04    7  6  7  1
  8.010278314970e-05    7  6  7  4
 -7.439496619727e-10    7  6  7  5
  1.871942891924e-02    7  6  7  6
  5.123386961772e-01    7  7  1  1
  4.711098551508e-01    7  7  2  2
  3.473705849435e-04    7  7  3  2
  5.016520925176e-01    7  7  3  3
  2.956265928125e-02    7  7  4  1
  3.010271685080e-01    7  7  4  4
 -4.809833324187e-03    7  7  5  1
 -5.421207738229e-03    7  7  5  4
  5.306518241563e-01    7  7  5  5
  4.694359216266e-04    7  7  6  1
  5.290895763898e-04    7  7  6  4
 -1.023670132153e-09    7  7  6  5
  5.306517785671e-01    7  7  6  6
  4.017961421272e-04    7  7  7  2
  2.372242455374e-02    7  7  7  3
  5.579075405913e-01    7  7  7  7
  9.506238975468e-03    8  1  2  1
 -8.876578662669e-05    8  1  3  1
 -4.249968588818e-04    8  1  4  2
  2.408244846332e-06    8  1  4  3
  1.893397948764e-03    8  1  5  2
  1.649269206435e-04    8  1  5  3
 -1.649264318004e-04    8  1  6  2
  1.893401538124e-03    8  1  6  3
  1.533092611793e-06    8  1  7  4
 -2.222563985367e-04    8  1  7  5
 -2.220491885415e-03    8  1  7  6
  1.299027422497e-02    8  1  8  1
  1.174508669825e-01    8  2  1  1
  1.702737895664e-01    8  2  2  2
 -1.087815769221e-04    8  2  3  2
  1.469091605357e-01    8  2  3  3
 -1.501086317964e-02    8  2  4  1
 -3.866539970065e-02    8  2  4  4
 -1.828299179922e-03    8  2  5  1
 -2.540055604401e-03    8  2  5  4
 -9.449624493650e-02    8  2  5  5
  1.616603052162e-04    8  2  6  1
  2.251657306509e-04    8  2  6  4
  6.762414442268e-10    8  2  6  5
 -9.449622907201e-02    8  2  6  6
  1.439283492123e-03    8  2  7  2
  1.222509413293e-01    8  2  7  3
  2.133989305137e-02    8  2  7  7
  1.459806189342e-01    8  2  8  2
 -1.331449645100e-03    8  3  1  1
 -1.633075234666e-03    8  3  2  2
  1.168231710427e-02    8  3  3  2
 -1.850638443282e-03    8  3  3  3
  1.473661800394e-04    8  3  4  1
  3.656355442553e-04    8  3  4  4
 -1.616595287457e-04    8  3  5  1
 -2.251652918613e-04    8  3  5  4
  8.619344768793e-04    8  3  5  5
 -1.828292454717e-03    8  3  6  1
 -2.540052969450e-03    8  3  6  4
 -3.003780957091e-09    8  3  6  5
  8.619355642549e-04    8  3  6  6
  1.184923473440e-02    8  3  7  2
 -1.439283492122e-03    8  3  7  3
 -3.380057013415e-04    8  3  7  7
 -1.439283650973e-03    8  3  8  2
  1.188042770127e-02    8  3  8  3
  7.524739257194e-04    8  4  2  1
 -1.248336552375e-05    8  4  3  1
 -3.125900535443e-03    8  4  4  2
  3.204995745668e-05    8  4  4  3
 -4.359359384886e-04    8  4  5  2
 -3.835878154205e-05    8  4  5  3
  3.835895198417e-05    8  4  6  2
 -4.359353287248e-04    8  4  6  3
 -1.533092611824e-06    8  4  7  1
  8.010453087169e-05    8  4  7  5
  8.181037074928e-04    8  4  7  6
 -9.804386855521e-05    8  4  8  1
  6.299380096265e-03    8  4  8  4
  3.432447863937e-03    8  5  2  1
  2.909758934796e-04    8  5  3  1
 -9.581533275654e-04    8  5  4  2
 -8.127484326271e-05    8  5  4  3
 -8.084259250606e-03    8  5  5  2
  7.707125045316e-05    8  5  5  3
 -3.603464076944e-05    8  5  6  2
 -3.714665385062e-03    8  5  6  3
 -2.222563985367e-04    8  5  7  1
  8.010453087185e-05    8  5  7  4
  8.411747406434e-03    8  5  7  6
 -2.220507698046e-03    8  5  8  1
  8.180912330015e-04    8  5  8  4
  1.871944075161e-02    8  5  8  5
 -2.909739261652e-04    8  6  2  1
  3.432459644060e-03    8  6  3  1
  8.127433031637e-05    8  6  4  2
 -9.581568153114e-04    8  6  4  3
  3.603948101357e-05    8  6  5  2
  3.714641565676e-03    8  6  5  3
 -8.084234768776e-03    8  6  6  2
  7.707604811942e-05    8  6  6  3
 -2.220491885415e-03    8  6  7  1
  8.181037074928e-04    8  6  7  4
 -8.411747406434e-03    8  6  7  5
  2.222583892430e-04    8  6  8  1
 -8.010278314947e-05    8  6  8  4
 -7.439496825387e-10    8  6  8  5
  1.871942891924e-02    8  6  8  6
  3.473707276216e-04    8  7  2  2
  1.527111340836e-02    8  7  3  2
 -3.473707276203e-04    8  7  3  3
  4.694363376195e-04    8  7  5  1
  5.290895991510e-04    8  7  5  4
  4.809833914972e-03    8  7  6  1
  5.421207076154e-03    8  7  6  4
  1.191281409438e-03    8  7  7  2
 -3.189524755332e-05    8  7  7  3
 -4.267789650519e-10    8  7  7  7
  3.189524755311e-05    8  7  8  2
  1.191281409438e-03    8  7  8  3
  1.863894705129e-02    8  7  8  7
  5.123386961772e-01    8  8  1  1
  5.016520925176e-01    8  8  2  2
 -3.473705849427e-04    8  8  3  2
  4.711098551508e-01    8  8  3  3
  2.956265928125e-02    8  8  4  1
  3.010271685080e-01    8  8  4  4
  4.809833324187e-03    8  8  5  1
  5.421207738229e-03    8  8  5  4
  5.306518241563e-01    8  8  5  5
 -4.694359216270e-04    8  8  6  1
 -5.290895763849e-04    8  8  6  4
 -1.023670204039e-09    8  8  6  5
  5.306517785671e-01    8  8  6  6
  3.380057013409e-04    8  8  7  2
  2.133989305137e-02    8  8  7  3
  5.206296073556e-01    8  8  7  7
  2.372242455375e-02    8  8  8  2
 -4.017961421279e-04    8  8  8  3
  4.267813908104e-10    8  8  8  7
  5.579075405913e-01    8  8  8  8
  1.439610542020e-01    9  1  1  1
  1.583239272291e-01    9  1  2  2
  1.583239272291e-01    9  1  3  3
 -2.074569963925e-02    9  1  4  1
 -5.417760996613e-02    9  1  4  4
 -1.324625913403e-01    9  1  5  5
  1.587208599091e-10    9  1  6  5
 -1.324625752178e-01    9  1  6  6
  1.459957761381e-03    9  1  7  2
  1.389059191934e-01    9  1  7  3
  2.450049278516e-04    9  1  7  7
  1.389059191934e-01    9  1  8  2
 -1.459957761380e-03    9  1  8  3
  2.450049278517e-04    9  1  8  8
  1.891246029555e-01    9  1  9  1
  1.446364356283e-02    9  2  2  1
  1.139010889412e-05    9  2  3  1
 -6.546436871944e-04    9  2  4  2
 -1.724988492858e-06    9  2  4  3
 -1.078044727957e-03    9  2  5  2
 -6.970862273054e-05    9  2  5  3
  6.970850257157e-05    9  2  6  2
 -1.078044759576e-03    9  2  6  3
  9.718287036948e-05    9  2  7  1
  6.111341996984e-06    9  2  7  4
 -7.488979428376e-05    9  2  7  5
 -8.043790948895e-04    9  2  7  6
  9.699504545388e-03    9  2  8  1
  5.059029180036e-04    9  2  8  4
 -8.043570659378e-04    9  2  8  5
  7.488687674450e-05    9  2  8  6
  1.526863726662e-02    9  2  9  2
 -1.139010889409e-05    9  3  2  1
  1.446364356283e-02    9  3  3  1
  1.724988492841e-06    9  3  4  2
 -6.546436871944e-04    9  3  4  3
 -6.970862273054e-05    9  3  5  2
  1.078044727957e-03    9  3  5  3
 -1.078044759576e-03    9  3  6  2
 -6.970850257150e-05    9  3  6  3
  9.699504545388e-03    9  3  7  1
  5.059029180037e-04    9  3  7  4
  8.043570659379e-04    9  3  7  5
 -7.488687674460e-05    9  3  7  6
 -9.718287036941e-05    9  3  8  1
 -6.111341996987e-06    9  3  8  4
 -7.488979428380e-05    9  3  8  5
 -8.043790948895e-04    9  3  8  6
  1.526863726662e-02    9  3  9  3
 -5.707596768919e-02    9  4  1  1
 -4.275978109316e-02    9  4  2  2
 -4.275978109316e-02    9  4  3  3
 -1.264768347480e-02    9  4  4  1
 -1.688064781454e-02    9  4  4  4
 -8.046727183146e-02    9  4  5  5
  1.775180412688e-10    9  4  6  5
 -8.046725998634e-02    9  4  6  6
  7.454641340813e-05    9  4  7  2
  9.711609608704e-03    9  4  7  3
 -6.946925002507e-02    9  4  7  7
  9.711609608703e-03    9  4  8  2
 -7.454641340783e-05    9  4  8  3
 -6.946925002507e-02    9  4  8  8
  1.678207300712e-02    9  4  9  1
  2.620169607550e-02    9  4  9  4
 -1.916657647157e-03    9  5  2  2
 -1.448196924774e-04    9  5  3  2
  1.916657647158e-03    9  5  3  3
 -1.335898590749e-02    9  5  5  1
 -7.035984968669e-03    9  5  5  4
  2.668074044684e-09    9  5  6  1
  3.781405979571e-08    9  5  6  4
  2.581207330843e-04    9  5  7  2
 -2.902629851205e-03    9  5  7  3
  7.159070008780e-03    9  5  7  7
  2.902629851205e-03    9  5  8  2
  2.581207330844e-04    9  5  8  3
 -6.982267122413e-04    9  5  8  7
 -7.159070008779e-03    9  5  8  8
  2.071579766732e-02    9  5  9  5
  1.448195953867e-04    9  6  2  2
 -1.916657600145e-03    9  6  3  2
 -1.448195953861e-04    9  6  3  3
 -2.597859318605e-09    9  6  5  1
 -3.781124315481e-08    9  6  5  4
 -1.335898336115e-02    9  6  6  1
 -7.035984899380e-03    9  6  6  4
  2.902617180298e-03    9  6  7  2
  2.581222369199e-04    9  6  7  3
 -6.982280825202e-04    9  6  7  7
 -2.581222369204e-04    9  6  8  2
  2.902617180298e-03    9  6  8  3
 -7.159053742909e-03    9  6  8  7
  6.982280825216e-04    9  6  8  8
 -4.720148903080e-11    9  6  9  5
  2.071579389862e-02    9  6  9  6
  1.702385870606e-04    9  7  2  1
  1.531504304911e-02    9  7  3  1
 -4.854331223335e-06    9  7  4  2
 -3.447396862166e-04    9  7  4  3
 -1.346337040625e-04    9  7  5  2
  1.534865843330e-03    9  7  5  3
 -1.534872339472e-03    9  7  6  2
 -1.346328646971e-04    9  7  6  3
  1.902617339952e-03    9  7  7  1
 -8.417110361215e-04    9  7  7  4
 -4.561239728636e-03    9  7  7  5
  4.432138169787e-04    9  7  7  6
  9.402276672940e-06    9  7  8  1
 -1.723315878258e-06    9  7  8  4
  4.432168610136e-04    9  7  8  5
  4.561265615645e-03    9  7  8  6
  6.220552188964e-05    9  7  9  2
  4.796775758244e-03    9  7  9  3
  1.659170147318e-02    9  7  9  7
  1.531504304911e-02    9  8  2  1
 -1.702385870605e-04    9  8  3  1
 -3.447396862166e-04    9  8  4  2
  4.854331223307e-06    9  8  4  3
 -1.534865843330e-03    9  8  5  2
 -1.346337040625e-04    9  8  5  3
  1.346328646970e-04    9  8  6  2
 -1.534872339472e-03    9  8  6  3
 -9.402276672932e-06    9  8  7  1
  1.723315878336e-06    9  8  7  4
  4.432168610136e-04    9  8  7  5
  4.561265615645e-03    9  8  7  6
  1.902617339952e-03    9  8  8  1
 -8.417110361215e-04    9  8  8  4
  4.561239728636e-03    9  8  8  5
 -4.432138169786e-04    9  8  8  6
  4.796775758244e-03    9  8  9  2
 -6.220552188966e-05    9  8  9  3
  1.659170147318e-02    9  8  9  8
  5.609381041979e-01    9  9  1  1
  4.848092740360e-01    9  9  2  2
  4.848092740360e-01    9  9  3  3
  3.472637848961e-02    9  9  4  1
  3.138213266429e-01    9  9  4  4
  5.571031038749e-01    9  9  5  5
 -6.832872789028e-10    9  9  6  5
  5.571030568289e-01    9  9  6  6
  3.237540757965e-04    9  9  7  2
  1.665734592299e-02    9  9  7  3
  5.537891764167e-01    9  9  7  7
  1.665734592299e-02    9  9  8  2
 -3.237540757973e-04    9  9  8  3
  5.537891764167e-01    9  9  8  8
 -1.392872696079e-03    9  9  9  1
 -8.030318449101e-02    9  9  9  4
  6.248530709262e-01    9  9  9  9
 -4.461802405735e+00    1  1  0  0
 -4.287227320045e+00    2  2  0  0
 -4.287227320045e+00    3  3  0  0
 -1.509223404026e-01    4  1  0  0
 -2.382951800292e+00    4  4  0  0
 -3.689539571781e+00    5  5  0  0
  3.089921639884e-09    6  5  0  0
 -3.689539372085e+00    6  6  0  0
 -4.034201418847e-03    7  2  0  0
 -4.013986881467e-01    7  3  0  0
 -3.783710587496e+00    7  7  0  0
 -4.013986881467e-01    8  2  0  0
  4.034201418851e-03    8  3  0  0
 -3.783710587496e+00    8  8  0  0
 -3.931932283247e-01    9  1  0  0
  4.007011294740e-01    9  4  0  0
 -3.824686390684e+00    9  9  0  0
    -66.540028541994   0  0  0  0
