 &FCI NORB=6 ,NELEC=5 ,MS2=3,
  ORBSYM=1,1,1,1,1,1,
  ISYM=1,
 &END
  2.540200430270e-01    1  1  1  1
  1.170862517582e-07    2  1  1  1
  7.833975112626e-03    2  1  2  1
  3.222230560905e-01    2  2  1  1
  2.124662478356e-05    2  2  2  1
  7.382419002415e-01    2  2  2  2
  1.265213117387e-04    3  1  1  1
  1.089752946733e-07    3  1  2  1
  1.163763833856e-05    3  1  2  2
  7.757892576321e-03    3  1  3  1
  5.014860786210e-07    3  2  1  1
 -2.134492958345e-03    3  2  2  1
 -1.159347879783e-06    3  2  2  2
 -1.626070506510e-05    3  2  3  1
  2.913255183350e-02    3  2  3  2
  3.220091886061e-01    3  3  1  1
 -1.899680765606e-05    3  3  2  1
  6.805581574134e-01    3  3  2  2
  2.566811953847e-03    3  3  3  1
  4.753886737887e-06    3  3  3  2
  7.377472967945e-01    3  3  3  3
  2.542255894184e-04    4  1  1  1
  3.136779109956e-07    4  1  2  1
  3.489634971426e-03    4  1  2  2
 -8.965434410138e-05    4  1  3  1
  5.358535766490e-06    4  1  3  2
  3.513164369816e-03    4  1  3  3
  7.701207098814e-03    4  1  4  1
  8.066642952647e-07    4  2  1  1
  2.327169817536e-04    4  2  2  1
 -1.088911868244e-06    4  2  2  2
  5.582765402748e-06    4  2  3  1
 -6.422631826785e-05    4  2  3  2
 -2.856117054284e-08    4  2  3  3
 -8.277406262837e-06    4  2  4  1
  2.854098868791e-02    4  2  4  2
 -2.817842147436e-04    4  3  1  1
  5.787008609521e-06    4  3  2  1
  1.294100569994e-04    4  3  2  2
  2.556695106339e-04    4  3  3  1
  9.149699794872e-08    4  3  3  2
  5.809329551795e-06    4  3  3  3
  2.417742643770e-03    4  3  4  1
 -1.452779396511e-06    4  3  4  2
  2.902792097674e-02    4  3  4  3
  3.218242340202e-01    4  4  1  1
 -1.087226114139e-05    4  4  2  1
  6.801095339511e-01    4  4  2  2
  4.553690141321e-03    4  4  3  1
 -2.064223702164e-06    4  4  3  2
  6.807623651215e-01    4  4  3  3
  3.842908801640e-03    4  4  4  1
  1.692845733286e-06    4  4  4  2
 -2.697400359510e-05    4  4  4  3
  7.383053582268e-01    4  4  4  4
  5.893559463543e-02    5  1  5  1
  3.663024654300e-05    5  2  5  1
  1.002022460494e-02    5  2  5  2
 -1.621132423791e-02    5  3  5  1
  5.917909643397e-06    5  3  5  2
  9.930616499950e-03    5  3  5  3
  7.823466839190e-06    5  4  5  1
 -3.890059881600e-06    5  4  5  2
 -5.575976630688e-05    5  4  5  3
  1.686304102969e-03    5  4  5  4
  2.505523021647e-01    5  5  1  1
  1.930142345611e-05    5  5  2  1
  3.155740405437e-01    5  5  2  2
 -8.271276701520e-03    5  5  3  1
  1.024208244770e-05    5  5  3  2
  3.151181016994e-01    5  5  3  3
  6.807720963519e-04    5  5  4  1
 -6.627930634308e-06    5  5  4  2
 -1.123886038270e-04    5  5  4  3
  3.023794820211e-01    5  5  4  4
  2.681768980480e-01    5  5  5  5
 -8.961477596417e-07    6  1  5  1
  1.325660898536e-02    6  1  5  2
  2.508734194355e-05    6  1  5  3
 -4.882975798561e-07    6  1  5  4
  5.890889848077e-02    6  1  6  1
  1.325661495346e-02    6  2  5  1
  2.215111774287e-05    6  2  5  2
 -5.382749413868e-03    6  2  5  3
 -9.363888636953e-04    6  2  5  4
 -1.264702478133e-05    6  2  6  1
  7.230159833842e-03    6  2  6  2
  2.385711284104e-05    6  3  5  1
 -1.489381645584e-03    6  3  5  2
 -2.013251184661e-05    6  3  5  3
  1.856627524325e-06    6  3  5  4
  5.102564421902e-03    6  3  6  1
 -1.396466160185e-06    6  3  6  2
  4.376418585883e-03    6  3  6  3
 -6.325263110816e-07    6  4  5  1
 -3.708320912279e-03    6  4  5  2
 -1.704473129714e-06    6  4  5  3
 -2.119792672940e-06    6  4  5  4
 -1.533368853521e-02    6  4  6  1
  1.285638710782e-05    6  4  6  2
 -3.862175625335e-03    6  4  6  3
  1.004906915795e-02    6  4  6  4
 -8.006926611655e-07    6  5  1  1
  7.119401472469e-03    6  5  2  1
  3.527019421635e-05    6  5  2  2
  1.320268961725e-05    6  5  3  1
 -5.438269834660e-03    6  5  3  2
 -3.371964044981e-05    6  5  3  3
 -2.916001713526e-07    6  5  4  1
 -3.480172613166e-03    6  5  4  2
  6.985479647398e-07    6  5  4  3
 -4.468538640283e-06    6  5  4  4
 -3.353003959073e-07    6  5  5  5
  1.609852612939e-02    6  5  6  5
  2.505239910214e-01    6  6  1  1
 -7.416418276942e-06    6  6  2  1
  3.109095310104e-01    6  6  2  2
  3.172265232073e-03    6  6  3  1
 -2.770294343405e-06    6  6  3  2
  3.067141387252e-01    6  6  3  3
 -7.553585201010e-03    6  6  4  1
  2.089573142146e-05    6  6  4  2
 -6.123711412359e-03    6  6  4  3
  3.153447165518e-01    6  6  4  4
  2.360367218421e-01    6  6  5  5
 -9.287209210438e-07    6  6  6  5
  2.681232124900e-01    6  6  6  6
 -1.438981911590e+00    1  1  0  0
  6.063326375973e-06    2  1  0  0
 -2.440562569788e+00    2  2  0  0
 -5.468203226266e-03    3  1  0  0
 -1.724820093451e-06    3  2  0  0
 -2.440552297152e+00    3  3  0  0
 -8.455765005889e-03    4  1  0  0
 -7.466429468398e-07    4  2  0  0
  8.223451033565e-05    4  3  0  0
 -2.440518973576e+00    4  4  0  0
 -1.271215507749e+00    5  5  0  0
  2.749599147404e-06    6  5  0  0
 -1.271115213767e+00    6  6  0  0
    -64.614329074683   0  0  0  0
