#INFO: **** input file is /projects/bamu3429/BENCHMARK/fresh_atoms/MRPT/vqz/atoms/V_0/mrpt.py ****
import json
from pyscf import gto,scf,mcscf, fci, lo, ci, cc
from pyscf.scf import ROHF, UHF,ROKS
import numpy as np
import pandas as pd

# THIS IS WERE IT STARTS ====================================

df=json.load(open("../../../trail.json"))

spins={'Sc':1, 'Ti':2, 'V':3, 'Cr':6, 'Mn':5, 'Fe':4, 'Cu':1}

nd={'Sc':(1,0), 'Ti':(2,0), 'V':(3,0), 'Cr':(5,0), 'Mn':(5,0), 'Fe':(5,1), 'Cu':(5,5)}

cas={'Sc':3, 'Ti':4, 'V':5, 'Cr':6, 'Mn':7, 'Fe':8, 'Cu':11}

datacsv={}
for nm in ['atom','charge','method','basis','pseudopotential','hf',
           'totalenergy','totalenergy-stocherr','totalenergy-syserr']:
  datacsv[nm]=[]

basis='vqz'
el='V'
charge=0

mol=gto.Mole()
mol.ecp={}
mol.basis={}
mol.ecp[el]=gto.basis.parse_ecp(df[el]['ecp'])
mol.basis[el]=gto.basis.parse(df[el][basis])
mol.charge=charge
if el == 'Cr' or el == 'Cu':
  mol.spin=spins[el]-charge
else:
  mol.spin=spins[el]+charge
mol.build(atom="%s 0. 0. 0."%el,verbose=4)

m=ROHF(mol)
m.level_shift=1000.0
dm=m.from_chk("../../../../HF/atoms/"+el+basis+str(charge)+".chk")
hf=m.kernel(dm)
m.analyze()

from pyscf.shciscf import shci
mc = shci.SHCISCF(m, 6, cas[el]-charge)
#mc.fcisolver.conv_tol = 1e-14
mc.fcisolver.mpiprefix="srun -n20"
mc.fcisolver.num_thrds=12
mc.verbose = 4
cas=mc.kernel()[0]
 
from pyscf.icmpspt import icmpspt
pt=icmpspt.icmpspt(mc,rdmM=500, PTM=1000,\
                          pttype="MRLCC",\
                          third_order=True,\
                          fully_ic=True,\
                          do_dm4=True)

datacsv['atom'].append(el)
datacsv['charge'].append(charge)
datacsv['method'].append('MRPT')
datacsv['basis'].append(basis)
datacsv['pseudopotential'].append('trail')
datacsv['hf'].append(hf)
datacsv['totalenergy'].append(cas+pt)
datacsv['totalenergy-stocherr'].append(0.0)
datacsv['totalenergy-syserr'].append(0.0)
pd.DataFrame(datacsv).to_csv(el+".csv",index=False)

#INFO: ******************** input file end ********************


System: ('Linux', 'bnode0302.rc.int.colorado.edu', '3.10.0-514.41.1.el7.x86_64', '#1 SMP Wed Jan 17 10:26:16 EST 2018', 'x86_64', 'x86_64')  Threads 28
Python 2.7.11 (default, Mar 22 2016, 01:42:54) 
[GCC Intel(R) C++ gcc 4.8 mode]
numpy 1.11.1  scipy 0.17.1
Date: Thu Apr 19 09:58:27 2018
PySCF version 1.4.6
PySCF path  /projects/bamu3429/softwares/pyscf_uptodate/pyscf
GIT ORIG_HEAD f3591ef22170896a4cdc2aadaa6f5da388ffcadb
GIT HEAD      ref: refs/heads/master
GIT master branch  1847583fb1d2472321833d3c71c8b7008e5fabf5

[INPUT] VERBOSE 4
[INPUT] num atoms = 1
[INPUT] num electrons = 13
[INPUT] charge = 0
[INPUT] spin (= nelec alpha-beta = 2S) = 3
[INPUT] symmetry False subgroup None
[INPUT]  1 V      0.000000000000   0.000000000000   0.000000000000 AA    0.000000000000   0.000000000000   0.000000000000 Bohr
[INPUT] ---------------- BASIS SET ---------------- 
[INPUT] l, kappa, [nprim/nctr], expnt,             c_1 c_2 ...
[INPUT] V
[INPUT] 0    0    [12   /1   ]  33.51168105       0.006845
                                15.38532624       -0.214557
                                9.96227367        1.392425
                                8.05943355        -1.485929
                                3.6960334         -0.026725
                                1.49220279        0.457681
                                0.84622253        0.506886
                                0.43855031        0.249453
                                0.2102388         0.007109
                                0.1022422         0.007055
                                0.04832462        -0.000443
                                0.02406855        0.001278
[INPUT] 0    0    [12   /1   ]  33.51168105       -0.001211
                                15.38532624       0.04697
                                9.96227367        -0.329808
                                8.05943355        0.363635
                                3.6960334         0.005985
                                1.49220279        -0.140857
                                0.84622253        -0.203846
                                0.43855031        -0.200776
                                0.2102388         0.022081
                                0.1022422         0.429765
                                0.04832462        0.534383
                                0.02406855        0.187984
[INPUT] 0    0    [12   /1   ]  33.51168105       -0.00739
                                15.38532624       0.238491
                                9.96227367        -1.724091
                                8.05943355        1.999647
                                3.6960334         -0.238256
                                1.49220279        -1.556963
                                0.84622253        0.309646
                                0.43855031        0.556155
                                0.2102388         0.87521
                                0.1022422         0.066563
                                0.04832462        -0.498018
                                0.02406855        -0.328938
[INPUT] 0    0    [12   /1   ]  33.51168105       -0.014812
                                15.38532624       0.388493
                                9.96227367        -2.78127
                                8.05943355        3.330758
                                3.6960334         -0.94462
                                1.49220279        -2.423512
                                0.84622253        2.390354
                                0.43855031        1.173321
                                0.2102388         -1.126324
                                0.1022422         -1.21378
                                0.04832462        0.578957
                                0.02406855        0.647397
[INPUT] 0    0    [12   /1   ]  33.51168105       0.02431
                                15.38532624       -0.654708
                                9.96227367        5.220233
                                8.05943355        -6.798776
                                3.6960334         4.217259
                                1.49220279        -0.410754
                                0.84622253        -4.499651
                                0.43855031        4.05621
                                0.2102388         0.422256
                                0.1022422         -1.849392
                                0.04832462        -0.198025
                                0.02406855        0.951472
[INPUT] 0    0    [1    /1   ]  0.02406855           1
[INPUT] 0    0    [1    /1   ]  0.01198757           1
[INPUT] 1    0    [12   /1   ]  49.83779697       0.000413
                                25.60370921       -0.003442
                                10.40982442       0.097153
                                7.71483683        -0.206888
                                4.49868206        0.083281
                                2.48212838        0.186621
                                1.4387019         0.395144
                                0.72090362        0.377883
                                0.3443302         0.134629
                                0.13162828        0.011074
                                0.05284968        -0.000426
                                0.02121951        0.000256
[INPUT] 1    0    [12   /1   ]  49.83779697       -2.9e-05
                                25.60370921       0.000502
                                10.40982442       -0.020934
                                7.71483683        0.047431
                                4.49868206        -0.020701
                                2.48212838        -0.057583
                                1.4387019         -0.106451
                                0.72090362        -0.140229
                                0.3443302         0.043257
                                0.13162828        0.438687
                                0.05284968        0.536785
                                0.02121951        0.12546
[INPUT] 1    0    [12   /1   ]  49.83779697       0.000125
                                25.60370921       -0.002517
                                10.40982442       0.129205
                                7.71483683        -0.331116
                                4.49868206        0.199683
                                2.48212838        0.736477
                                1.4387019         0.263863
                                0.72090362        -0.926674
                                0.3443302         -0.457633
                                0.13162828        0.732362
                                0.05284968        0.294964
                                0.02121951        -0.006728
[INPUT] 1    0    [12   /1   ]  49.83779697       -0.000421
                                25.60370921       -0.000896
                                10.40982442       0.223292
                                7.71483683        -0.706699
                                4.49868206        0.969782
                                2.48212838        1.23461
                                1.4387019         -1.707054
                                0.72090362        -0.818959
                                0.3443302         1.677915
                                0.13162828        -0.284846
                                0.05284968        -0.553275
                                0.02121951        0.038662
[INPUT] 1    0    [12   /1   ]  49.83779697       -0.005409
                                25.60370921       0.02436
                                10.40982442       0.004817
                                7.71483683        -0.691264
                                4.49868206        2.714011
                                2.48212838        -1.342486
                                1.4387019         -2.368929
                                0.72090362        3.305492
                                0.3443302         -1.334113
                                0.13162828        -0.670775
                                0.05284968        0.961376
                                0.02121951        -0.095792
[INPUT] 1    0    [1    /1   ]  0.02121951           1
[INPUT] 1    0    [1    /1   ]  0.00851977           1
[INPUT] 2    0    [10   /1   ]  34.27504048       0.000678
                                16.12418185       -0.017858
                                9.59474528        0.107867
                                3.8690861         0.173949
                                1.82728072        0.26883
                                0.85799457        0.321303
                                0.38035078        0.300128
                                0.15533087        0.170792
                                0.06318167        0.035148
                                0.03734397        0.003549
[INPUT] 2    0    [10   /1   ]  34.27504048       0.000582
                                16.12418185       0.010626
                                9.59474528        -0.094081
                                3.8690861         -0.229152
                                1.82728072        -0.398003
                                0.85799457        -0.07706
                                0.38035078        0.316419
                                0.15533087        0.47231
                                0.06318167        0.193995
                                0.03734397        0.015813
[INPUT] 2    0    [10   /1   ]  34.27504048       0.003942
                                16.12418185       -0.00929
                                9.59474528        -0.056573
                                3.8690861         -0.437279
                                1.82728072        -0.366316
                                0.85799457        0.692165
                                0.38035078        0.436052
                                0.15533087        -0.45661
                                0.06318167        -0.393393
                                0.03734397        -0.018597
[INPUT] 2    0    [10   /1   ]  34.27504048       -0.001109
                                16.12418185       0.03439
                                9.59474528        -0.270394
                                3.8690861         -0.936233
                                1.82728072        1.031092
                                0.85799457        0.469932
                                0.38035078        -0.990908
                                0.15533087        0.147863
                                0.06318167        0.422386
                                0.03734397        0.020135
[INPUT] 2    0    [1    /1   ]  0.03734397           1
[INPUT] 2    0    [1    /1   ]  0.02207241           1
[INPUT] 3    0    [1    /1   ]  3.23539              1
[INPUT] 3    0    [1    /1   ]  1.128879             1
[INPUT] 3    0    [1    /1   ]  0.393882             1
[INPUT] 3    0    [1    /1   ]  0.13743105           1
[INPUT] 4    0    [1    /1   ]  3.232259             1
[INPUT] 4    0    [1    /1   ]  1.154065             1
[INPUT] 4    0    [1    /1   ]  0.41205423           1
[INPUT] 5    0    [1    /1   ]  2.694878             1
[INPUT] 5    0    [1    /1   ]  0.96219527           1
nuclear repulsion = 0
number of shells = 29
number of NR pGTOs = 535
number of NR cGTOs = 135
basis = {'V': [[0, [33.51168105, 0.006845], [15.38532624, -0.214557], [9.96227367, 1.392425], [8.05943355, -1.485929], [3.6960334, -0.026725], [1.49220279, 0.457681], [0.84622253, 0.506886], [0.43855031, 0.249453], [0.2102388, 0.007109], [0.1022422, 0.007055], [0.04832462, -0.000443], [0.02406855, 0.001278]], [0, [33.51168105, -0.001211], [15.38532624, 0.04697], [9.96227367, -0.329808], [8.05943355, 0.363635], [3.6960334, 0.005985], [1.49220279, -0.140857], [0.84622253, -0.203846], [0.43855031, -0.200776], [0.2102388, 0.022081], [0.1022422, 0.429765], [0.04832462, 0.534383], [0.02406855, 0.187984]], [0, [33.51168105, -0.00739], [15.38532624, 0.238491], [9.96227367, -1.724091], [8.05943355, 1.999647], [3.6960334, -0.238256], [1.49220279, -1.556963], [0.84622253, 0.309646], [0.43855031, 0.556155], [0.2102388, 0.87521], [0.1022422, 0.066563], [0.04832462, -0.498018], [0.02406855, -0.328938]], [0, [33.51168105, -0.014812], [15.38532624, 0.388493], [9.96227367, -2.78127], [8.05943355, 3.330758], [3.6960334, -0.94462], [1.49220279, -2.423512], [0.84622253, 2.390354], [0.43855031, 1.173321], [0.2102388, -1.126324], [0.1022422, -1.21378], [0.04832462, 0.578957], [0.02406855, 0.647397]], [0, [33.51168105, 0.02431], [15.38532624, -0.654708], [9.96227367, 5.220233], [8.05943355, -6.798776], [3.6960334, 4.217259], [1.49220279, -0.410754], [0.84622253, -4.499651], [0.43855031, 4.05621], [0.2102388, 0.422256], [0.1022422, -1.849392], [0.04832462, -0.198025], [0.02406855, 0.951472]], [0, [0.02406855, 1.0]], [0, [0.01198757, 1.0]], [1, [49.83779697, 0.000413], [25.60370921, -0.003442], [10.40982442, 0.097153], [7.71483683, -0.206888], [4.49868206, 0.083281], [2.48212838, 0.186621], [1.4387019, 0.395144], [0.72090362, 0.377883], [0.3443302, 0.134629], [0.13162828, 0.011074], [0.05284968, -0.000426], [0.02121951, 0.000256]], [1, [49.83779697, -2.9e-05], [25.60370921, 0.000502], [10.40982442, -0.020934], [7.71483683, 0.047431], [4.49868206, -0.020701], [2.48212838, -0.057583], [1.4387019, -0.106451], [0.72090362, -0.140229], [0.3443302, 0.043257], [0.13162828, 0.438687], [0.05284968, 0.536785], [0.02121951, 0.12546]], [1, [49.83779697, 0.000125], [25.60370921, -0.002517], [10.40982442, 0.129205], [7.71483683, -0.331116], [4.49868206, 0.199683], [2.48212838, 0.736477], [1.4387019, 0.263863], [0.72090362, -0.926674], [0.3443302, -0.457633], [0.13162828, 0.732362], [0.05284968, 0.294964], [0.02121951, -0.006728]], [1, [49.83779697, -0.000421], [25.60370921, -0.000896], [10.40982442, 0.223292], [7.71483683, -0.706699], [4.49868206, 0.969782], [2.48212838, 1.23461], [1.4387019, -1.707054], [0.72090362, -0.818959], [0.3443302, 1.677915], [0.13162828, -0.284846], [0.05284968, -0.553275], [0.02121951, 0.038662]], [1, [49.83779697, -0.005409], [25.60370921, 0.02436], [10.40982442, 0.004817], [7.71483683, -0.691264], [4.49868206, 2.714011], [2.48212838, -1.342486], [1.4387019, -2.368929], [0.72090362, 3.305492], [0.3443302, -1.334113], [0.13162828, -0.670775], [0.05284968, 0.961376], [0.02121951, -0.095792]], [1, [0.02121951, 1.0]], [1, [0.00851977, 1.0]], [2, [34.27504048, 0.000678], [16.12418185, -0.017858], [9.59474528, 0.107867], [3.8690861, 0.173949], [1.82728072, 0.26883], [0.85799457, 0.321303], [0.38035078, 0.300128], [0.15533087, 0.170792], [0.06318167, 0.035148], [0.03734397, 0.003549]], [2, [34.27504048, 0.000582], [16.12418185, 0.010626], [9.59474528, -0.094081], [3.8690861, -0.229152], [1.82728072, -0.398003], [0.85799457, -0.07706], [0.38035078, 0.316419], [0.15533087, 0.47231], [0.06318167, 0.193995], [0.03734397, 0.015813]], [2, [34.27504048, 0.003942], [16.12418185, -0.00929], [9.59474528, -0.056573], [3.8690861, -0.437279], [1.82728072, -0.366316], [0.85799457, 0.692165], [0.38035078, 0.436052], [0.15533087, -0.45661], [0.06318167, -0.393393], [0.03734397, -0.018597]], [2, [34.27504048, -0.001109], [16.12418185, 0.03439], [9.59474528, -0.270394], [3.8690861, -0.936233], [1.82728072, 1.031092], [0.85799457, 0.469932], [0.38035078, -0.990908], [0.15533087, 0.147863], [0.06318167, 0.422386], [0.03734397, 0.020135]], [2, [0.03734397, 1.0]], [2, [0.02207241, 1.0]], [3, [3.23539, 1.0]], [3, [1.128879, 1.0]], [3, [0.393882, 1.0]], [3, [0.13743105, 1.0]], [4, [3.232259, 1.0]], [4, [1.154065, 1.0]], [4, [0.41205423, 1.0]], [5, [2.694878, 1.0]], [5, [0.96219527, 1.0]]]}
ecp = {'V': [10, [[-1, [[], [[8.85341849, 13.0]], [[14.12393489, 1867.96836466], [10.01469125, -417.2185296], [16.87739786, -6735.41034163], [17.42661229, 5248.9519915]], [[8.14766139, 115.09444037]]]], [0, [[], [], [[10.17161428, 8429.89768085], [6.62108601, -4738.0869454], [6.4407206, 3874.69004628], [11.26222343, -9817.80452096], [19.82459033, -286.16022228], [14.35299938, 2571.80634504]], []]], [1, [[], [], [[10.25117807, 40641.17869487], [10.49106006, -41559.00487832], [13.7869188, 3357.33248976], [16.29479305, -896.47755921], [7.79003518, -1904.45864373], [6.62830213, 382.3757783]], []]], [2, [[], [], [[8.601477, 4615.05527413], [10.66674565, -3671.60281242], [15.19026557, 4480.50015686], [8.06189603, -2591.12632756], [19.82232597, 2587.18683714], [18.22318105, -5431.92186158]], []]]]]}
CPU time:         3.56


******** <class 'pyscf.scf.rohf.ROHF'> flags ********
method = ROHF
initial guess = minao
damping factor = 0
level shift factor = 1000.0
DIIS = <class 'pyscf.scf.diis.CDIIS'>
DIIS start cycle = 1
DIIS space = 8
SCF tol = 1e-09
SCF gradient tol = None
max. SCF cycles = 50
direct_scf = True
direct_scf_tol = 1e-13
chkfile to save SCF result = /rc_scratch/bamu3429/tmpCemfRX
max_memory 4000 MB (current use 186 MB)
num. doubly occ = 5  num. singly occ = 3
Set gradient conv threshold to 3.16228e-05
init E= -70.6971195329919
  HOMO = 499.893161315062  LUMO = 1000.01365629165
cycle= 1 E= -70.697119532992  delta_E= -1.71e-13  |g|= 1.17e-05  |ddm|= 5.63e-08
  HOMO = -0.106838687432371  LUMO = 0.0136562916681061
Extra cycle  E= -70.6971195330077  delta_E= -1.57e-11  |g|= 3.81e-06  |ddm|= 3.96e-05
converged SCF energy = -70.6971195330077
**** MO energy ****
                Roothaan           | alpha              | beta
MO #1   energy= -3.22315758941026  | -3.33519432069071  | -3.1111208581298   occ= 2
MO #2   energy= -2.03208226458512  | -2.16999207289523  | -1.89417245627501  occ= 2
MO #3   energy= -2.03208226358899  | -2.16999207921972  | -1.89417244795825  occ= 2
MO #4   energy= -2.03208226260605  | -2.16999208560787  | -1.89417243960423  occ= 2
MO #5   energy= -0.232112335614963 | -0.243463338626585 | -0.220761332603338 occ= 2
MO #6   energy= -0.106838694945474 | -0.50579869520232  | 0.292120652898322  occ= 1
MO #7   energy= -0.106838691205884 | -0.505798689731407 | 0.292120655019425  occ= 1
MO #8   energy= -0.106838687432371 | -0.505798684221951 | 0.292120657166731  occ= 1
MO #9   energy= 0.0136562916681061 | 0.0129507501116184 | 0.0143618332245938 occ= 0
MO #10  energy= 0.0136562917860218 | 0.0129507502058089 | 0.0143618333662352 occ= 0
MO #11  energy= 0.0136562919015659 | 0.0129507502974512 | 0.0143618335056807 occ= 0
MO #12  energy= 0.0260815301252115 | 0.0255098816456584 | 0.0266531786047613 occ= 0
MO #13  energy= 0.0421695895307082 | 0.0400253630526524 | 0.0443138160087566 occ= 0
MO #14  energy= 0.0421695898422061 | 0.0400253632338674 | 0.044313816450545  occ= 0
MO #15  energy= 0.0421695901527603 | 0.0400253634134841 | 0.0443138168920344 occ= 0
MO #16  energy= 0.0610125631088788 | 0.0607071984147372 | 0.0613179278030218 occ= 0
MO #17  energy= 0.0610125631122181 | 0.0607071984181372 | 0.0613179278063015 occ= 0
MO #18  energy= 0.0625654961105784 | 0.0623415488631678 | 0.062789606944958  occ= 0
MO #19  energy= 0.0625654961312014 | 0.0623415488801697 | 0.062789606965942  occ= 0
MO #20  energy= 0.0625654961559076 | 0.0623415489012675 | 0.0627896069909995 occ= 0
MO #21  energy= 0.133011242679823  | 0.121322623764375  | 0.144699861595272  occ= 0
MO #22  energy= 0.133011242687693  | 0.121322623771972  | 0.144699861603417  occ= 0
MO #23  energy= 0.172653455303914  | 0.165807938664461  | 0.179498971943368  occ= 0
MO #24  energy= 0.17265345597628   | 0.16580793891254   | 0.179498973040019  occ= 0
MO #25  energy= 0.172653456645896  | 0.165807939154597  | 0.179498974137194  occ= 0
MO #26  energy= 0.178330343600009  | 0.174978071970381  | 0.181682703655132  occ= 0
MO #27  energy= 0.178330343826131  | 0.174978072153527  | 0.181682703898851  occ= 0
MO #28  energy= 0.178330344064558  | 0.174978072348839  | 0.181682704155189  occ= 0
MO #29  energy= 0.186513408706089  | 0.182121484892993  | 0.190905332519175  occ= 0
MO #30  energy= 0.227921481206395  | 0.211016504545988  | 0.244826457866793  occ= 0
MO #31  energy= 0.227921481214972  | 0.211016504554542  | 0.244826457875395  occ= 0
MO #32  energy= 0.517089415723839  | 0.514737323953222  | 0.519441507494459  occ= 0
MO #33  energy= 0.517089415813345  | 0.514737323880596  | 0.519441507746098  occ= 0
MO #34  energy= 0.517089415877549  | 0.514737323783642  | 0.519441507971456  occ= 0
MO #35  energy= 0.517140196855968  | 0.513476260692898  | 0.520804133019041  occ= 0
MO #36  energy= 0.517140197170406  | 0.513476260720084  | 0.520804133620729  occ= 0
MO #37  energy= 0.517140197483034  | 0.513476260747492  | 0.520804134218581  occ= 0
MO #38  energy= 0.51714773940083   | 0.511756145405885  | 0.522539333395777  occ= 0
MO #39  energy= 0.600198212601821  | 0.590034450710843  | 0.610361974492766  occ= 0
MO #40  energy= 0.612523071641536  | 0.581358074909861  | 0.643688447992636  occ= 0
MO #41  energy= 0.612523073027885  | 0.581358076151848  | 0.643688449454643  occ= 0
MO #42  energy= 0.612523074443334  | 0.581358077423094  | 0.643688450947471  occ= 0
MO #43  energy= 0.670344307673722  | 0.656606262376225  | 0.684082352971218  occ= 0
MO #44  energy= 0.670344307689938  | 0.656606262392736  | 0.684082352987141  occ= 0
MO #45  energy= 1.04978400276051   | 1.02612693600774   | 1.07344106951329   occ= 0
MO #46  energy= 1.04978400477485   | 1.02612693681965   | 1.07344107273006   occ= 0
MO #47  energy= 1.04978400677145   | 1.02612693760553   | 1.07344107593736   occ= 0
MO #48  energy= 1.53005590434167   | 1.48707067921833   | 1.57304112946502   occ= 0
MO #49  energy= 1.53421780346351   | 1.50479736272609   | 1.56363824420093   occ= 0
MO #50  energy= 1.53421780411845   | 1.50479736129629   | 1.5636382469406    occ= 0
MO #51  energy= 1.53421780476943   | 1.50479735987728   | 1.56363824966158   occ= 0
MO #52  energy= 1.53723068343409   | 1.51839274176819   | 1.55606862509999   occ= 0
MO #53  energy= 1.537230683577     | 1.51839274325341   | 1.55606862390059   occ= 0
MO #54  energy= 1.53723068368706   | 1.51839274471457   | 1.55606862265956   occ= 0
MO #55  energy= 1.90622351251288   | 1.89980252155654   | 1.91264450346923   occ= 0
MO #56  energy= 1.90746828029412   | 1.8996242713578    | 1.91531228923044   occ= 0
MO #57  energy= 1.90746828044958   | 1.89962427157388   | 1.91531228932527   occ= 0
MO #58  energy= 1.90746828066047   | 1.89962427184548   | 1.91531228947546   occ= 0
MO #59  energy= 1.90835718043015   | 1.89950369470555   | 1.91721066615475   occ= 0
MO #60  energy= 1.90835718044279   | 1.8995036947185    | 1.91721066616708   occ= 0
MO #61  energy= 1.91094085521548   | 1.89878062264298   | 1.92310108700435   occ= 0
MO #62  energy= 1.91094085590306   | 1.89878062304594   | 1.92310108797605   occ= 0
MO #63  energy= 1.91094085657885   | 1.89878062343477   | 1.92310108893838   occ= 0
MO #64  energy= 2.3595697806989    | 2.33224687653036   | 2.38689268486741   occ= 0
MO #65  energy= 2.49715247332001   | 2.43119928126452   | 2.56310568600327   occ= 0
MO #66  energy= 2.49715247590156   | 2.43119928412715   | 2.56310568829026   occ= 0
MO #67  energy= 2.49715247851541   | 2.4311992870242    | 2.56310569060839   occ= 0
MO #68  energy= 2.52829836012967   | 2.50984134656912   | 2.5467553736902    occ= 0
MO #69  energy= 2.52829836014216   | 2.50984134658189   | 2.54675537370241   occ= 0
MO #70  energy= 3.9141072570209    | 3.88246268111475   | 3.94575183292706   occ= 0
MO #71  energy= 3.91410726068492   | 3.88246268337526   | 3.94575183799457   occ= 0
MO #72  energy= 3.91410726434488   | 3.88246268562289   | 3.94575184306685   occ= 0
MO #73  energy= 4.03798487980411   | 3.94670881008423   | 4.129260949524     occ= 0
MO #74  energy= 4.04546376277025   | 3.98189720457175   | 4.10903032096876   occ= 0
MO #75  energy= 4.0454637642561    | 3.98189720193875   | 4.10903032657348   occ= 0
MO #76  energy= 4.04546376573215   | 3.98189719932533   | 4.10903033213897   occ= 0
MO #77  energy= 4.05129184429039   | 4.00958424869996   | 4.0929994398808    occ= 0
MO #78  energy= 4.05129184462397   | 4.00958425191406   | 4.09299943733387   occ= 0
MO #79  energy= 4.0512918449429    | 4.0095842551329    | 4.0929994347529    occ= 0
MO #80  energy= 5.40003584633269   | 5.3881705216857    | 5.41190117097968   occ= 0
MO #81  energy= 5.40003584705482   | 5.38817052224158   | 5.41190117186808   occ= 0
MO #82  energy= 5.40003584775038   | 5.38817052276954   | 5.41190117273122   occ= 0
MO #83  energy= 5.40298025183849   | 5.38944374384516   | 5.41651675983181   occ= 0
MO #84  energy= 5.40298025250057   | 5.38944374420707   | 5.41651676079409   occ= 0
MO #85  energy= 5.40298025314393   | 5.38944374454786   | 5.41651676174001   occ= 0
MO #86  energy= 5.41065815300314   | 5.39244974404064   | 5.42886656196565   occ= 0
MO #87  energy= 5.41065815302138   | 5.39244974405907   | 5.4288665619837    occ= 0
MO #88  energy= 5.41208866223303   | 5.39301406767058   | 5.4311632567955    occ= 0
MO #89  energy= 5.41208866395048   | 5.39301406896093   | 5.43116325894005   occ= 0
MO #90  energy= 5.41208866569586   | 5.3930140702763    | 5.43116326111543   occ= 0
MO #91  energy= 5.62932310648198   | 5.60805530264423   | 5.65059091031975   occ= 0
MO #92  energy= 5.63235283740381   | 5.60619288292064   | 5.65851279188697   occ= 0
MO #93  energy= 5.63235283780734   | 5.60619288362008   | 5.6585127919946    occ= 0
MO #94  energy= 5.63235283824456   | 5.60619288435138   | 5.65851279213775   occ= 0
MO #95  energy= 5.63453783658559   | 5.60496426390467   | 5.66411140926651   occ= 0
MO #96  energy= 5.63453783659376   | 5.60496426391301   | 5.66411140927452   occ= 0
MO #97  energy= 5.64089655345879   | 5.60047811350403   | 5.68131499860563   occ= 0
MO #98  energy= 5.64089655509259   | 5.60047811427336   | 5.68131500110275   occ= 0
MO #99  energy= 5.64089655672722   | 5.6004781150371    | 5.68131500360708   occ= 0
MO #100 energy= 7.22196477611676   | 7.16874000974476   | 7.27518953797122   occ= 0
MO #101 energy= 7.22196477888357   | 7.16874001283205   | 7.27518954041757   occ= 0
MO #102 energy= 7.22196478166887   | 7.16874001593915   | 7.27518954288116   occ= 0
MO #103 energy= 7.22948933490107   | 7.21223557665811   | 7.24674309314405   occ= 0
MO #104 energy= 7.22948933490131   | 7.21223557665822   | 7.24674309314442   occ= 0
MO #105 energy= 8.32647879781373   | 8.29466657705579   | 8.35829101857166   occ= 0
MO #106 energy= 10.8418109750192   | 10.8036459297324   | 10.879976020306    occ= 0
MO #107 energy= 10.841810975732    | 10.8036459278573   | 10.8799760236066   occ= 0
MO #108 energy= 10.8418109764468   | 10.803645926003    | 10.8799760268906   occ= 0
MO #109 energy= 10.8424381530476   | 10.7854272521454   | 10.8994490539499   occ= 0
MO #110 energy= 10.8424381563332   | 10.7854272519933   | 10.8994490606731   occ= 0
MO #111 energy= 10.842438159596    | 10.7854272518435   | 10.8994490673486   occ= 0
MO #112 energy= 10.8430163299939   | 10.762168373348    | 10.9238642866398   occ= 0
MO #113 energy= 11.5620468655651   | 11.5311645771199   | 11.5929291540103   occ= 0
MO #114 energy= 11.5620468699265   | 11.5311645800741   | 11.5929291597788   occ= 0
MO #115 energy= 11.5620468743227   | 11.531164583054    | 11.5929291655915   occ= 0
MO #116 energy= 15.2060965378716   | 15.1791512011396   | 15.2330418746036   occ= 0
MO #117 energy= 15.2109062442416   | 15.1778024333481   | 15.2440100551351   occ= 0
MO #118 energy= 15.2109062447685   | 15.1778024342835   | 15.2440100552535   occ= 0
MO #119 energy= 15.2109062452793   | 15.1778024351994   | 15.2440100553592   occ= 0
MO #120 energy= 15.2143570944238   | 15.1768668505903   | 15.2518473382574   occ= 0
MO #121 energy= 15.2143570944266   | 15.1768668505934   | 15.2518473382598   occ= 0
MO #122 energy= 15.2246242479725   | 15.1736576519514   | 15.2755908442561   occ= 0
MO #123 energy= 15.2246242503153   | 15.1736576532462   | 15.2755908476466   occ= 0
MO #124 energy= 15.2246242526783   | 15.1736576545538   | 15.2755908510645   occ= 0
MO #125 energy= 15.8984333013376   | 15.8764521583401   | 15.9204144443352   occ= 0
MO #126 energy= 15.8984333025346   | 15.8764521592432   | 15.9204144458259   occ= 0
MO #127 energy= 15.8984333037397   | 15.8764521601526   | 15.9204144473268   occ= 0
MO #128 energy= 15.9038235273968   | 15.8786737052154   | 15.9289733495783   occ= 0
MO #129 energy= 15.9038235285752   | 15.8786737058184   | 15.928973351332    occ= 0
MO #130 energy= 15.9038235297617   | 15.8786737064256   | 15.9289733530979   occ= 0
MO #131 energy= 15.9178975605872   | 15.8841549471035   | 15.951640174071    occ= 0
MO #132 energy= 15.9178975605872   | 15.8841549471035   | 15.9516401740709   occ= 0
MO #133 energy= 15.920513367816    | 15.8851854397155   | 15.9558412959165   occ= 0
MO #134 energy= 15.9205133707325   | 15.8851854419029   | 15.955841299562    occ= 0
MO #135 energy= 15.9205133736695   | 15.8851854441058   | 15.9558413032333   occ= 0
 ** Mulliken pop on meta-lowdin orthogonal AOs  **
 ** Mulliken pop  **
pop of  0V 3s        1.99995
pop of  0V 4s        1.99924
pop of  0V 5s        0.00046
pop of  0V 6s        0.00016
pop of  0V 7s        0.00001
pop of  0V 8s        0.00009
pop of  0V 9s        0.00008
pop of  0V 3px       1.99968
pop of  0V 3py       1.99968
pop of  0V 3pz       1.99968
pop of  0V 4px       0.00010
pop of  0V 4py       0.00010
pop of  0V 4pz       0.00010
pop of  0V 5px       0.00002
pop of  0V 5py       0.00002
pop of  0V 5pz       0.00002
pop of  0V 6px       0.00001
pop of  0V 6py       0.00001
pop of  0V 6pz       0.00001
pop of  0V 7px       0.00000
pop of  0V 7py       0.00000
pop of  0V 7pz       0.00000
pop of  0V 8px       0.00000
pop of  0V 8py       0.00000
pop of  0V 8pz       0.00000
pop of  0V 9px       0.00000
pop of  0V 9py       0.00000
pop of  0V 9pz       0.00000
pop of  0V 3dxy      0.99531
pop of  0V 3dyz      0.99531
pop of  0V 3dz^2     0.00000
pop of  0V 3dxz      0.99531
pop of  0V 3dx2-y2    0.00000
pop of  0V 4dxy      0.00380
pop of  0V 4dyz      0.00380
pop of  0V 4dz^2     0.00000
pop of  0V 4dxz      0.00380
pop of  0V 4dx2-y2    0.00000
pop of  0V 5dxy      0.00030
pop of  0V 5dyz      0.00030
pop of  0V 5dz^2     0.00000
pop of  0V 5dxz      0.00030
pop of  0V 5dx2-y2    0.00000
pop of  0V 6dxy      0.00000
pop of  0V 6dyz      0.00000
pop of  0V 6dz^2     0.00000
pop of  0V 6dxz      0.00000
pop of  0V 6dx2-y2    0.00000
pop of  0V 7dxy      0.00050
pop of  0V 7dyz      0.00050
pop of  0V 7dz^2     0.00000
pop of  0V 7dxz      0.00050
pop of  0V 7dx2-y2    0.00000
pop of  0V 8dxy      0.00008
pop of  0V 8dyz      0.00008
pop of  0V 8dz^2     0.00000
pop of  0V 8dxz      0.00008
pop of  0V 8dx2-y2    0.00000
pop of  0V 4fy^3     0.00002
pop of  0V 4fxyz     0.00000
pop of  0V 4fyz^2    0.00001
pop of  0V 4fz^3     0.00004
pop of  0V 4fxz^2    0.00001
pop of  0V 4fzx^2    0.00000
pop of  0V 4fx^3     0.00002
pop of  0V 5fy^3     0.00006
pop of  0V 5fxyz     0.00000
pop of  0V 5fyz^2    0.00003
pop of  0V 5fz^3     0.00009
pop of  0V 5fxz^2    0.00003
pop of  0V 5fzx^2    0.00000
pop of  0V 5fx^3     0.00006
pop of  0V 6fy^3     0.00003
pop of  0V 6fxyz     0.00000
pop of  0V 6fyz^2    0.00002
pop of  0V 6fz^3     0.00005
pop of  0V 6fxz^2    0.00002
pop of  0V 6fzx^2    0.00000
pop of  0V 6fx^3     0.00003
pop of  0V 7fy^3     0.00000
pop of  0V 7fxyz     0.00000
pop of  0V 7fyz^2    0.00000
pop of  0V 7fz^3     0.00000
pop of  0V 7fxz^2    0.00000
pop of  0V 7fzx^2    0.00000
pop of  0V 7fx^3     0.00000
pop of  0V 5g-4      0.00000
pop of  0V 5g-3      0.00000
pop of  0V 5g-2      0.00000
pop of  0V 5g-1      0.00000
pop of  0V 5g 0      0.00000
pop of  0V 5g 1      0.00000
pop of  0V 5g 2      0.00000
pop of  0V 5g 3      0.00000
pop of  0V 5g 4      0.00000
pop of  0V 6g-4      0.00000
pop of  0V 6g-3      0.00000
pop of  0V 6g-2      0.00000
pop of  0V 6g-1      0.00000
pop of  0V 6g 0      0.00000
pop of  0V 6g 1      0.00000
pop of  0V 6g 2      0.00000
pop of  0V 6g 3      0.00000
pop of  0V 6g 4      0.00000
pop of  0V 7g-4      0.00000
pop of  0V 7g-3      0.00000
pop of  0V 7g-2      0.00000
pop of  0V 7g-1      0.00000
pop of  0V 7g 0      0.00000
pop of  0V 7g 1      0.00000
pop of  0V 7g 2      0.00000
pop of  0V 7g 3      0.00000
pop of  0V 7g 4      0.00000
pop of  0V 6h-5      0.00000
pop of  0V 6h-4      0.00000
pop of  0V 6h-3      0.00000
pop of  0V 6h-2      0.00000
pop of  0V 6h-1      0.00000
pop of  0V 6h 0      0.00000
pop of  0V 6h 1      0.00000
pop of  0V 6h 2      0.00000
pop of  0V 6h 3      0.00000
pop of  0V 6h 4      0.00000
pop of  0V 6h 5      0.00000
pop of  0V 7h-5      0.00000
pop of  0V 7h-4      0.00000
pop of  0V 7h-3      0.00000
pop of  0V 7h-2      0.00000
pop of  0V 7h-1      0.00000
pop of  0V 7h 0      0.00000
pop of  0V 7h 1      0.00000
pop of  0V 7h 2      0.00000
pop of  0V 7h 3      0.00000
pop of  0V 7h 4      0.00000
pop of  0V 7h 5      0.00000
 ** Mulliken atomic charges  **
charge of  0V =     -0.00000

******** <class 'pyscf.mcscf.mc1step.CASSCF'> flags ********
CAS (4e+1e, 6o), ncore = 4, nvir = 125
max_cycle_macro = 50
max_cycle_micro = 4
conv_tol = 1e-07
conv_tol_grad = None
orbital rotation max_stepsize = 0.02
augmented hessian ah_max_cycle = 30
augmented hessian ah_conv_tol = 1e-12
augmented hessian ah_linear dependence = 1e-14
augmented hessian ah_level shift = 0
augmented hessian ah_start_tol = 2.5
augmented hessian ah_start_cycle = 3
augmented hessian ah_grad_trust_region = 3
kf_trust_region = 3
kf_interval = 4
ci_response_space = 4
ci_grad_trust_region = 3
with_dep4 0
natorb = False
canonicalization = True
sorting_mo_energy = False
chkfile = ./scratch/13643/tmplKAqwc
max_memory 4000 MB (current use 824 MB)
internal_rotation = False

******** SHCI flags ********
executable             = /home/bamu3429/softwares/dice/Dice
mpiprefix              = srun -n20
scratchDirectory       = ./scratch/13643
integralFile           = ./FCIDUMP
configFile             = ./input.dat
outputFile             = ./output.dat
maxIter                = 6
sweep_iter             = []
sweep_epsilon          = []
nPTiter                = 0
Stochastic             = True
fullrestart            = False
restart                = False
num_thrds              = 12
memory                 = None

CASCI E = -70.6974944576279  S^2 = 3.7500000
Set conv_tol_grad to 0.000316228
macro iter 1 (21 JK  4 micro), CASSCF E = -70.7033170246928  dE = -0.0058225671  S^2 = 3.7500000
               |grad[o]|=0.00147  |grad[c]|= None  |ddm|=0.0248
macro iter 2 (21 JK  4 micro), CASSCF E = -70.7161550768511  dE = -0.012838052  S^2 = 3.7500000
               |grad[o]|=0.0107  |grad[c]|= None  |ddm|=0.0795
macro iter 3 (21 JK  4 micro), CASSCF E = -70.7194036697643  dE = -0.0032485929  S^2 = 3.7500000
               |grad[o]|=0.0133  |grad[c]|= None  |ddm|=0.0214
macro iter 4 (15 JK  4 micro), CASSCF E = -70.7199809822885  dE = -0.00057731252  S^2 = 3.7500000
               |grad[o]|=0.00583  |grad[c]|= None  |ddm|=0.011
macro iter 5 (17 JK  4 micro), CASSCF E = -70.7199963143172  dE = -1.5332029e-05  S^2 = 3.7500000
               |grad[o]|=0.0015  |grad[c]|= None  |ddm|=0.00454
macro iter 6 (16 JK  3 micro), CASSCF E = -70.7199989795632  dE = -2.665246e-06  S^2 = 3.7500000
               |grad[o]|=0.000375  |grad[c]|= None  |ddm|=0.00128
macro iter 7 (5 JK  1 micro), CASSCF E = -70.7199990997957  dE = -1.202325e-07  S^2 = 3.7500000
               |grad[o]|=7.9e-05  |grad[c]|= None  |ddm|=0.00021
macro iter 8 (4 JK  1 micro), CASSCF E = -70.7199991387509  dE = -3.8955164e-08  S^2 = 3.7500000
               |grad[o]|=5.52e-05  |grad[c]|= None  |ddm|=0.000109
1-step CASSCF converged in 8 macro (120 JK 25 micro) steps
CASSCF canonicalization
CASSCF energy = -70.7199991387509


--------------------------------------------------
                 ICMPSPT CALCULATION              
--------------------------------------------------

Perturbation type: MRLCC
With fully internally contracted scheme
With third order correction

Preparing necessary RDMs
......production of RDMs took       2.51 sec
Reading binary 4RDM from DICE
......reading the RDM took          0.97 sec

(GOOD) Trace 4RDM:    120.0 =    5*    4*    3*    2
(GOOD) Trace 3RDM:     60.0 =    5*    4*    3
(GOOD) Trace 2RDM:     20.0 =    5*    4
(GOOD) Trace 1RDM:      5.0 =    5

Producing the integrals
......production of INT took     232.67 sec

Energy_core =  -64.61432907
Energy      =  -70.71999914

WARNING: Have to use natural orbitals from CAASCF
         offdiagonal elements:    0.75724896

Basic ingredients written to int/
......savings of INGREDIENTS took      64.64 sec

Second-order:
perturber CCVV --        -0.173989625
perturber CCAV --        -0.069755946
perturber ACVV --        -0.153961432
perturber CCAA --        -0.006336021
perturber AAVV --        -0.048601678
perturber CAAV --        -0.061415273
perturber AAAV --        -0.009276730
perturber AAAC --        -0.002787987
Total:                   -0.526124691

Third-order:             -0.000416129

Total PT       --        -0.526540820

