 &FCI NORB=6 ,NELEC=4 ,MS2=2,
  ORBSYM=1,1,1,1,1,1,
  ISYM=1,
 &END
  2.451121460891e-01    1  1  1  1
  1.157882137311e-11    2  1  1  1
  8.774093148368e-03    2  1  2  1
  3.064667765108e-01    2  2  1  1
  2.941227623064e-11    2  2  2  1
  6.541797277645e-01    2  2  2  2
  2.707493522877e-12    3  1  1  1
  8.774093148368e-03    3  1  3  1
  1.882528483417e-12    3  2  2  1
  9.070233664139e-12    3  2  3  1
  2.517046587176e-02    3  2  3  2
  3.064667765108e-01    3  3  1  1
  6.038387960209e-01    3  3  2  2
  7.114257878723e-12    3  3  3  1
  6.541797277645e-01    3  3  3  3
  5.691409444467e-02    4  1  4  1
  3.414859255854e-11    4  2  4  1
  2.192813489503e-03    4  2  4  2
 -3.075293058713e-11    4  3  4  1
  1.334635728118e-03    4  3  4  2
  1.156442009989e-02    4  3  4  3
  2.420889532612e-01    4  4  1  1
  1.406366673742e-11    4  4  2  1
  2.889451278352e-01    4  4  2  2
 -1.147363188296e-11    4  4  3  1
  1.835106559624e-03    4  4  3  2
  3.018294530400e-01    4  4  3  3
  2.593615790508e-01    4  4  4  4
 -2.795090665699e-11    5  1  4  2
 -5.446286514313e-11    5  1  4  3
  5.691409444467e-02    5  1  5  1
 -2.828948884372e-11    5  2  4  1
  1.334635728118e-03    5  2  4  2
  7.551519282120e-03    5  2  4  3
 -5.972269859703e-11    5  2  5  1
  1.156442009989e-02    5  2  5  2
 -5.302297976228e-11    5  3  4  1
  1.820087329152e-03    5  3  4  2
 -1.334635728118e-03    5  3  4  3
  2.482144557274e-11    5  3  5  1
 -1.334635728118e-03    5  3  5  2
  2.192813489503e-03    5  3  5  3
 -1.087576630009e-11    5  4  2  1
  1.835106559625e-03    5  4  2  2
 -2.144401718716e-11    5  4  3  1
  6.442162603682e-03    5  4  3  2
 -1.835106559626e-03    5  4  3  3
  1.552834699655e-02    5  4  5  4
  2.420889532612e-01    5  5  1  1
 -2.079049840265e-11    5  5  2  1
  3.018294530400e-01    5  5  2  2
  9.924744521322e-12    5  5  3  1
 -1.835106559624e-03    5  5  3  2
  2.889451278353e-01    5  5  3  3
  2.283048850624e-01    5  5  4  4
  2.593615790508e-01    5  5  5  5
  4.391136107113e-12    6  1  4  1
  2.487300002794e-03    6  1  4  2
  1.781434728534e-02    6  1  4  3
  1.137902781319e-11    6  1  5  1
  1.781434728534e-02    6  1  5  2
 -2.487300002794e-03    6  1  5  3
  5.443778122018e-02    6  1  6  1
  2.547661980983e-03    6  2  4  1
 -3.938661163690e-12    6  2  4  2
  1.824252194107e-02    6  2  5  1
  1.267004850456e-12    6  2  5  3
  4.119990466803e-11    6  2  6  1
  1.207738232914e-02    6  2  6  2
  1.824252194107e-02    6  3  4  1
  5.811262908421e-12    6  3  4  2
 -2.247857510022e-12    6  3  4  3
 -2.547661980983e-03    6  3  5  1
 -1.198742193168e-12    6  3  5  2
 -1.516158672010e-11    6  3  5  3
  9.592338905771e-12    6  3  6  1
  1.207738232914e-02    6  3  6  3
 -7.135605439008e-12    6  4  1  1
  1.317505970203e-03    6  4  2  1
 -1.355742590541e-11    6  4  2  2
  9.434396832810e-03    6  4  3  1
  1.676699709382e-12    6  4  3  2
 -1.126885808297e-11    6  4  3  3
 -1.109383396974e-11    6  4  4  4
 -2.260745890154e-12    6  4  5  4
 -9.364899971111e-12    6  4  5  5
  1.585114691279e-02    6  4  6  4
 -1.846909113174e-11    6  5  1  1
  9.434396832810e-03    6  5  2  1
 -2.293147293158e-11    6  5  2  2
 -1.317505970203e-03    6  5  3  1
 -4.144431580970e-11    6  5  3  3
 -2.427889681255e-11    6  5  4  4
 -2.868340958142e-11    6  5  5  5
  1.585114691279e-02    6  5  6  5
  2.421521940056e-01    6  6  1  1
  2.534593982914e-11    6  6  2  1
  3.052784315151e-01    6  6  2  2
  5.900190485488e-12    6  6  3  1
  3.052784315151e-01    6  6  3  3
  2.298075356220e-01    6  6  4  4
  2.298075356220e-01    6  6  5  5
 -1.065353960369e-11    6  6  6  4
 -2.758218846568e-11    6  6  6  5
  2.618383836962e-01    6  6  6  6
 -1.071858405207e+00    1  1  0  0
 -1.605390355474e+00    2  2  0  0
 -1.605390355474e+00    3  3  0  0
 -9.262252746254e-01    4  4  0  0
 -9.262252746254e-01    5  5  0  0
  3.804598637001e-11    6  4  0  0
  9.852498337426e-11    6  5  0  0
 -9.314188615183e-01    6  6  0  0
    -54.187056257366   0  0  0  0
