 &FCI NORB=9 ,NELEC=12 ,MS2=4,
  ORBSYM=1,1,1,1,1,1,1,1,1,
  ISYM=1,
 &END
  8.844753962705e-01    1  1  1  1
  5.199213367009e-03    2  1  2  1
  3.749803119199e-01    2  2  1  1
  6.270363735588e-01    2  2  2  2
  2.662982308965e-03    3  1  3  1
 -8.294791357380e-04    3  2  3  1
  3.052037651189e-02    3  2  3  2
  3.337099237662e-01    3  3  1  1
 -3.718679266621e-04    3  3  2  1
  5.873360716463e-01    3  3  2  2
  6.733132568651e-01    3  3  3  3
 -1.013093394516e-03    4  1  3  2
  2.662982308965e-03    4  1  4  1
 -1.013093394516e-03    4  2  3  1
  8.294791357380e-04    4  2  4  1
  3.052037651189e-02    4  2  4  2
 -4.542997326487e-04    4  3  2  1
  1.041021736722e-07    4  3  3  3
  3.118244891607e-02    4  3  4  3
  3.337099237662e-01    4  4  1  1
  3.718679266618e-04    4  4  2  1
  5.873360716463e-01    4  4  2  2
  6.109484431485e-01    4  4  3  3
 -1.041021734884e-07    4  4  4  3
  6.733132568651e-01    4  4  4  4
 -9.911949350373e-03    5  1  2  1
 -1.590895681228e-03    5  1  3  3
 -1.942687187830e-03    5  1  4  3
  1.590895681228e-03    5  1  4  4
  3.611495849002e-02    5  1  5  1
 -1.310187075043e-01    5  2  1  1
  3.195234237263e-02    5  2  2  2
  4.142649316206e-02    5  2  3  3
  4.142649316206e-02    5  2  4  4
  5.153765955363e-02    5  2  5  2
 -4.591997015747e-04    5  3  3  1
  5.542621320616e-03    5  3  3  2
 -5.608994446999e-04    5  3  4  1
 -2.123785030728e-08    5  3  4  2
  4.255313420158e-03    5  3  5  3
 -5.608994446999e-04    5  4  3  1
  2.123785033765e-08    5  4  3  2
  4.591997015746e-04    5  4  4  1
  5.542621320616e-03    5  4  4  2
  4.255313420158e-03    5  4  5  4
  7.583480063675e-01    5  5  1  1
  3.966762666322e-01    5  5  2  2
  3.505875950470e-01    5  5  3  3
  3.505875950470e-01    5  5  4  4
 -1.317271131837e-01    5  5  5  2
  7.800730127663e-01    5  5  5  5
  7.311730669977e-03    6  1  3  1
 -1.643501303440e-03    6  1  3  2
  7.420824264126e-04    6  1  4  1
 -1.637064322410e-03    6  1  4  2
  8.713458050306e-04    6  1  5  3
  8.676215870601e-04    6  1  5  4
  3.329837089381e-02    6  1  6  1
 -9.412968308005e-04    6  2  3  1
 -4.769681877798e-03    6  2  3  2
 -9.376623890218e-04    6  2  4  1
 -4.834506214553e-04    6  2  4  2
 -1.584794138863e-03    6  2  5  3
 -1.609067100515e-04    6  2  5  4
 -1.977426840401e-03    6  2  6  1
  6.721583762420e-03    6  2  6  2
  1.135418810044e-01    6  3  1  1
  6.659064123994e-04    6  3  2  1
 -4.861261725734e-02    6  3  2  2
 -7.955435446112e-02    6  3  3  3
 -6.895604634673e-04    6  3  4  3
 -6.595285998324e-02    6  3  4  4
 -2.501740149359e-03    6  3  5  1
 -4.297109547061e-02    6  3  5  2
  1.018924359379e-01    6  3  5  5
  5.114742120699e-02    6  3  6  3
  1.152532646359e-02    6  4  1  1
  6.631443782537e-04    6  4  2  1
 -4.925325828227e-03    6  4  2  2
 -6.684976827666e-03    6  4  3  3
 -6.800717741936e-03    6  4  4  3
 -8.064710802729e-03    6  4  4  4
 -2.491985474576e-03    6  4  5  1
 -4.360061562503e-03    6  4  5  2
  1.034371854081e-02    6  4  5  5
  4.815010097728e-03    6  4  6  3
  4.176060192538e-03    6  4  6  4
  1.280816921246e-03    6  5  3  1
 -3.570325188102e-03    6  5  3  2
  1.275571371907e-03    6  5  4  1
 -3.623852170670e-04    6  5  4  2
  3.673718474422e-03    6  5  5  3
  3.727653752780e-04    6  5  5  4
  6.067288612685e-03    6  5  6  1
 -4.718811571138e-03    6  5  6  2
  2.199899999134e-02    6  5  6  5
  8.059790527463e-01    6  6  1  1
  4.089575322493e-03    6  6  2  1
  4.051485204310e-01    6  6  2  2
  3.687606896275e-01    6  6  3  3
  9.974037970073e-04    6  6  4  3
  3.590354461652e-01    6  6  4  4
 -1.274385951567e-02    6  6  5  1
 -1.311586994860e-01    6  6  5  2
  7.766600668862e-01    6  6  5  5
  1.170897150036e-01    6  6  6  3
  1.188695886135e-02    6  6  6  4
  8.639721424859e-01    6  6  6  6
 -7.420824264128e-04    7  1  3  1
 -1.637064322410e-03    7  1  3  2
  7.311730669977e-03    7  1  4  1
  1.643501303440e-03    7  1  4  2
  8.676215870601e-04    7  1  5  3
 -8.713458050307e-04    7  1  5  4
 -1.606798881085e-03    7  1  6  2
  4.928481091757e-03    7  1  6  5
  3.329837089381e-02    7  1  7  1
 -9.376623890220e-04    7  2  3  1
  4.834506214554e-04    7  2  3  2
  9.412968308004e-04    7  2  4  1
 -4.769681877798e-03    7  2  4  2
  1.609067100515e-04    7  2  5  3
 -1.584794138863e-03    7  2  5  4
 -1.606798881085e-03    7  2  6  1
 -1.267333612180e-07    7  2  6  5
  1.977426840401e-03    7  2  7  1
  6.721583762420e-03    7  2  7  2
 -1.152532646360e-02    7  3  1  1
  6.631443782536e-04    7  3  2  1
  4.925325828228e-03    7  3  2  2
  8.064710802731e-03    7  3  3  3
 -6.800717741936e-03    7  3  4  3
  6.684976827668e-03    7  3  4  4
 -2.491985474576e-03    7  3  5  1
  4.360061562504e-03    7  3  5  2
 -1.034371854081e-02    7  3  5  5
 -4.814608010465e-03    7  3  6  3
  3.199132913039e-03    7  3  6  4
 -1.059400265355e-02    7  3  6  6
  4.176060192539e-03    7  3  7  3
  1.135418810044e-01    7  4  1  1
 -6.659064123993e-04    7  4  2  1
 -4.861261725734e-02    7  4  2  2
 -6.595285998324e-02    7  4  3  3
  6.895604634671e-04    7  4  4  3
 -7.955435446111e-02    7  4  4  4
  2.501740149359e-03    7  4  5  1
 -4.297109547061e-02    7  4  5  2
  1.018924359379e-01    7  4  5  5
  4.377222709375e-02    7  4  6  3
  4.814608010463e-03    7  4  6  4
  1.043588792542e-01    7  4  6  6
 -4.815010097729e-03    7  4  7  3
  5.114742120699e-02    7  4  7  4
  1.275571371907e-03    7  5  3  1
  3.623852170670e-04    7  5  3  2
 -1.280816921247e-03    7  5  4  1
 -3.570325188102e-03    7  5  4  2
 -3.727653752781e-04    7  5  5  3
  3.673718474422e-03    7  5  5  4
  4.928481091757e-03    7  5  6  1
  1.267333611859e-07    7  5  6  2
 -6.067288612685e-03    7  5  7  1
 -4.718811571138e-03    7  5  7  2
  2.199899999134e-02    7  5  7  5
  3.321555418296e-03    7  6  2  1
 -9.965605701215e-04    7  6  3  3
  4.862615795414e-03    7  6  4  3
  9.965605701210e-04    7  6  4  4
 -1.035250847495e-02    7  6  5  1
 -6.462192630104e-04    7  6  6  3
  6.365395815280e-03    7  6  6  4
 -5.611912099106e-07    7  6  6  6
  6.365395815280e-03    7  6  7  3
  6.462192630110e-04    7  6  7  4
  3.287167389543e-02    7  6  7  6
  8.059790527463e-01    7  7  1  1
 -4.089575322493e-03    7  7  2  1
  4.051485204310e-01    7  7  2  2
  3.590354461652e-01    7  7  3  3
 -9.974037970086e-04    7  7  4  3
  3.687606896275e-01    7  7  4  4
  1.274385951567e-02    7  7  5  1
 -1.311586994860e-01    7  7  5  2
  7.766600668862e-01    7  7  5  5
  1.043588792542e-01    7  7  6  3
  1.059400265355e-02    7  7  6  4
  7.982292547206e-01    7  7  6  6
 -1.188695886136e-02    7  7  7  3
  1.170897150036e-01    7  7  7  4
  5.611912122722e-07    7  7  7  6
  8.639721424859e-01    7  7  7  7
  4.325614369316e-05    8  1  1  1
  7.311219711941e-06    8  1  2  2
  4.077844859972e-06    8  1  3  3
  4.077844859979e-06    8  1  4  4
 -1.020268579169e-05    8  1  5  2
  3.449299295299e-05    8  1  5  5
  7.650875655806e-06    8  1  6  3
  5.995899812336e-07    8  1  6  4
  3.916466246724e-05    8  1  6  6
 -5.995899812163e-07    8  1  7  3
  7.650875655825e-06    8  1  7  4
  3.916466246731e-05    8  1  7  7
  1.904846168560e-02    8  1  8  1
  4.279738848711e-07    8  2  2  1
 -4.186534340178e-04    8  2  3  3
  3.431441650281e-04    8  2  4  3
  4.186534340179e-04    8  2  4  4
 -1.597257426141e-06    8  2  5  1
  6.884503871573e-04    8  2  6  3
 -6.909138422546e-04    8  2  6  4
  3.425633310563e-03    8  2  6  6
 -6.909138422545e-04    8  2  7  3
 -6.884503871574e-04    8  2  7  4
 -4.215654925746e-03    8  2  7  6
 -3.425633310563e-03    8  2  7  7
  5.307844422268e-03    8  2  8  2
 -1.457800178233e-07    8  3  3  1
 -9.823442762437e-04    8  3  3  2
  1.260238085143e-03    8  3  4  1
  8.047177691941e-04    8  3  4  2
 -5.135326773326e-04    8  3  5  3
  4.210204956599e-04    8  3  5  4
  3.412061836025e-04    8  3  6  1
 -9.151780160115e-04    8  3  6  2
  1.277274046384e-03    8  3  6  5
  3.359166528171e-03    8  3  7  1
  9.190691062325e-04    8  3  7  2
 -1.282496816272e-03    8  3  7  5
  2.622560783449e-03    8  3  8  3
 -1.260238085143e-03    8  4  3  1
  8.047177691941e-04    8  4  3  2
 -1.457800178154e-07    8  4  4  1
  9.823442762438e-04    8  4  4  2
  4.210204956600e-04    8  4  5  3
  5.135326773326e-04    8  4  5  4
 -3.359166528171e-03    8  4  6  1
  9.190691062324e-04    8  4  6  2
 -1.282496816272e-03    8  4  6  5
  3.412061836024e-04    8  4  7  1
  9.151780160114e-04    8  4  7  2
 -1.277274046384e-03    8  4  7  5
  2.622560783449e-03    8  4  8  4
 -1.424719792671e-06    8  5  2  1
 -1.899600343772e-03    8  5  3  3
  1.556153835606e-03    8  5  4  3
  1.899600343771e-03    8  5  4  4
  6.975184539865e-07    8  5  5  1
 -2.496835988439e-03    8  5  6  3
  2.506535615967e-03    8  5  6  4
 -1.036918559497e-02    8  5  6  6
  2.506535615967e-03    8  5  7  3
  2.496835988439e-03    8  5  7  4
  1.276404209639e-02    8  5  7  6
  1.036918559497e-02    8  5  7  7
 -1.029421008303e-02    8  5  8  2
  3.628969091475e-02    8  5  8  5
 -3.420847610114e-04    8  6  3  1
 -1.625612477650e-03    8  6  3  2
  3.374333753209e-03    8  6  4  1
  1.632218081175e-03    8  6  4  2
  8.807111442387e-04    8  6  5  3
 -8.842738735129e-04    8  6  5  4
  2.234100529495e-06    8  6  6  1
 -1.578848094395e-03    8  6  6  2
  5.009944410989e-03    8  6  6  5
  1.502966583359e-02    8  6  7  1
  1.943530906165e-03    8  6  7  2
 -6.165987478493e-03    8  6  7  5
  7.391886574735e-03    8  6  8  3
  7.501010002104e-04    8  6  8  4
  3.386468580718e-02    8  6  8  6
 -3.374333753210e-03    8  7  3  1
  1.632218081175e-03    8  7  3  2
 -3.420847610113e-04    8  7  4  1
  1.625612477650e-03    8  7  4  2
 -8.842738735128e-04    8  7  5  3
 -8.807111442386e-04    8  7  5  4
 -1.502966583359e-02    8  7  6  1
  1.943530906165e-03    8  7  6  2
 -6.165987478493e-03    8  7  6  5
  2.234100529518e-06    8  7  7  1
  1.578848094395e-03    8  7  7  2
 -5.009944410989e-03    8  7  7  5
 -7.501010002105e-04    8  7  8  3
  7.391886574734e-03    8  7  8  4
  3.386468580718e-02    8  7  8  7
  8.573146696006e-01    8  8  1  1
  3.768632417466e-01    8  8  2  2
  3.347753449979e-01    8  8  3  3
  3.347753449979e-01    8  8  4  4
 -1.335892737668e-01    8  8  5  2
  7.670727158507e-01    8  8  5  5
  1.154618496406e-01    8  8  6  3
  1.172024125110e-02    8  8  6  4
  8.158824682713e-01    8  8  6  6
 -1.172024125110e-02    8  8  7  3
  1.154618496406e-01    8  8  7  4
  8.158824682713e-01    8  8  7  7
  4.449507555512e-05    8  8  8  1
  9.066603357708e-01    8  8  8  8
 -5.251662579549e-03    9  1  2  1
  2.579728251461e-04    9  1  3  3
  3.152702357895e-04    9  1  4  3
 -2.579728251461e-04    9  1  4  4
  5.733716138263e-03    9  1  5  1
 -4.982039776862e-04    9  1  6  3
 -4.960272765775e-04    9  1  6  4
 -2.501603310555e-03    9  1  6  6
 -4.960272765775e-04    9  1  7  3
  4.982039776863e-04    9  1  7  4
 -2.031513701819e-03    9  1  7  6
  2.501603310556e-03    9  1  7  7
 -2.649409881973e-07    9  1  8  2
  2.302766659784e-06    9  1  8  5
  7.831250558910e-03    9  1  9  1
 -5.559991339528e-02    9  2  1  1
  1.602214244572e-01    9  2  2  2
  1.566375241894e-01    9  2  3  3
  1.566375241894e-01    9  2  4  4
  4.803426762709e-02    9  2  5  2
 -4.067204398836e-02    9  2  5  5
 -5.099952000513e-02    9  2  6  3
 -5.172144439062e-03    9  2  6  4
 -4.232539621214e-02    9  2  6  6
  5.172144439063e-03    9  2  7  3
 -5.099952000513e-02    9  2  7  4
 -4.232539621214e-02    9  2  7  7
 -3.586162495904e-06    9  2  8  1
 -5.648642658190e-02    9  2  8  8
  9.999685873376e-02    9  2  9  2
 -1.154726604313e-04    9  3  3  1
  1.142817795410e-02    9  3  3  2
 -1.408545255162e-04    9  3  4  1
  1.459083149617e-08    9  3  4  2
  3.282987573919e-03    9  3  5  3
 -4.433709864370e-09    9  3  5  4
  1.316315772230e-04    9  3  6  1
 -2.834867471232e-03    9  3  6  2
 -5.009228561340e-05    9  3  6  5
  1.309913293380e-04    9  3  7  1
  2.872849567876e-04    9  3  7  2
  4.866994681566e-06    9  3  7  5
 -1.491273599739e-04    9  3  8  3
  1.221256913159e-04    9  3  8  4
  1.286136423147e-04    9  3  8  6
 -1.293095386741e-04    9  3  8  7
  7.626492089906e-03    9  3  9  3
 -1.408545255162e-04    9  4  3  1
 -1.459083148267e-08    9  4  3  2
  1.154726604312e-04    9  4  4  1
  1.142817795410e-02    9  4  4  2
  4.433709839877e-09    9  4  5  3
  3.282987573919e-03    9  4  5  4
  1.309913293380e-04    9  4  6  1
 -2.872849567875e-04    9  4  6  2
 -4.866994681551e-06    9  4  6  5
 -1.316315772231e-04    9  4  7  1
 -2.834867471232e-03    9  4  7  2
 -5.009228561335e-05    9  4  7  5
  1.221256913159e-04    9  4  8  3
  1.491273599738e-04    9  4  8  4
 -1.293095386741e-04    9  4  8  6
 -1.286136423147e-04    9  4  8  7
  7.626492089906e-03    9  4  9  4
  1.085443750601e-01    9  5  1  1
  7.764047189236e-02    9  5  2  2
  6.551064885281e-02    9  5  3  3
  6.551064885281e-02    9  5  4  4
 -2.277212606565e-02    9  5  5  2
  1.198954534514e-01    9  5  5  5
  1.080136255296e-02    9  5  6  3
  1.098014888236e-03    9  5  6  4
  1.208563069181e-01    9  5  6  6
 -1.098014888236e-03    9  5  7  3
  1.080136255296e-02    9  5  7  4
  1.208563069181e-01    9  5  7  7
  1.021553006729e-05    9  5  8  1
  1.111346994070e-01    9  5  8  8
  1.461534042770e-02    9  5  9  2
  4.168694739043e-02    9  5  9  5
  2.213448834750e-04    9  6  3  1
 -4.113908912723e-03    9  6  3  2
  2.204723520273e-04    9  6  4  1
 -4.169272210903e-04    9  6  4  2
  6.374435961240e-04    9  6  5  3
  6.508128558074e-05    9  6  5  4
  2.987619660080e-03    9  6  6  1
 -3.365587508892e-03    9  6  6  2
  4.035653560383e-03    9  6  6  5
  2.426713642669e-03    9  6  7  1
 -5.135122394110e-08    9  6  7  2
  1.448827123458e-07    9  6  7  5
  2.196107483985e-04    9  6  8  3
 -2.205217046193e-04    9  6  8  4
  2.378926105935e-03    9  6  8  6
 -2.929742940480e-03    9  6  8  7
 -7.620472332446e-04    9  6  9  3
 -7.744549756937e-05    9  6  9  4
  9.512875171714e-03    9  6  9  6
  2.204723520273e-04    9  7  3  1
  4.169272210904e-04    9  7  3  2
 -2.213448834750e-04    9  7  4  1
 -4.113908912723e-03    9  7  4  2
 -6.508128558072e-05    9  7  5  3
  6.374435961240e-04    9  7  5  4
  2.426713642669e-03    9  7  6  1
  5.135122390990e-08    9  7  6  2
 -1.448827123370e-07    9  7  6  5
 -2.987619660079e-03    9  7  7  1
 -3.365587508892e-03    9  7  7  2
  4.035653560383e-03    9  7  7  5
 -2.205217046193e-04    9  7  8  3
 -2.196107483985e-04    9  7  8  4
 -2.929742940480e-03    9  7  8  6
 -2.378926105935e-03    9  7  8  7
  7.744549756933e-05    9  7  9  3
 -7.620472332446e-04    9  7  9  4
  9.512875171714e-03    9  7  9  7
 -3.181773077560e-07    9  8  2  1
  2.721210369340e-04    9  8  3  3
 -2.231965295091e-04    9  8  4  3
 -2.721210369340e-04    9  8  4  4
  2.611186288607e-06    9  8  5  1
 -5.301054113449e-04    9  8  6  3
  5.318664178361e-04    9  8  6  4
 -2.185034417532e-03    9  8  6  6
  5.318664178361e-04    9  8  7  3
  5.301054113449e-04    9  8  7  4
  2.687540379361e-03    9  8  7  6
  2.185034417532e-03    9  8  7  7
 -5.323858011525e-03    9  8  8  2
  6.354594938765e-03    9  8  8  5
 -3.562365646145e-07    9  8  9  1
  7.736637231009e-03    9  8  9  8
  3.888948453249e-01    9  9  1  1
  3.341103938860e-01    9  9  2  2
  3.093478675969e-01    9  9  3  3
  3.093478675969e-01    9  9  4  4
 -2.365618175714e-02    9  9  5  2
  3.866182166616e-01    9  9  5  5
  1.976183535505e-02    9  9  6  3
  2.007723007346e-03    9  9  6  4
  3.952559888156e-01    9  9  6  6
 -2.007723007347e-03    9  9  7  3
  1.976183535505e-02    9  9  7  4
  3.952559888156e-01    9  9  7  7
  7.278214464719e-06    9  9  8  1
  3.907277831723e-01    9  9  8  8
  8.622164334493e-04    9  9  9  2
  3.376986881807e-02    9  9  9  5
  3.252318510017e-01    9  9  9  9
 -6.666510280068e+00    1  1  0  0
 -5.493081395371e+00    2  2  0  0
 -5.313324888978e+00    3  3  0  0
 -5.313324888978e+00    4  4  0  0
  6.225915274685e-01    5  2  0  0
 -6.407034910807e+00    5  5  0  0
 -3.943877708141e-01    6  3  0  0
 -4.007640151164e-02    6  4  0  0
 -6.690347741734e+00    6  6  0  0
  4.007640151165e-02    7  3  0  0
 -3.943877708141e-01    7  4  0  0
 -6.690347741734e+00    7  7  0  0
 -2.204523067117e-04    8  1  0  0
 -6.719543597692e+00    8  8  0  0
 -4.224647353040e-01    9  2  0  0
 -8.810557554653e-01    9  5  0  0
 -4.025273838863e+00    9  9  0  0
   -100.004646811554   0  0  0  0
