#INFO: **** input file is /projects/bamu3429/BENCHMARK/fresh_atoms/MRPT/vdz/monoxides/FeO/mrpt.py ****
import json
from pyscf import gto,scf,mcscf, fci, lo, ci, cc
from pyscf.scf import ROHF, UHF,ROKS
import numpy as np
import pandas as pd

# THIS IS WERE IT STARTS ====================================

df=json.load(open("../../../trail.json"))

spins={'ScO':1, 'TiO':2, 'VO':3, 'CrO':4, 'MnO':5, 'FeO':4, 'CuO':1}

nd={'Sc':(1,0), 'Ti':(2,0), 'V':(3,0), 'Cr':(5,0), 'Mn':(5,0), 'Fe':(5,1), 'Cu':(5,4)}

cas={'Sc':3, 'Ti':4, 'V':5, 'Cr':6, 'Mn':7, 'Fe':8, 'Cu':11}

re={'ScO':1.668, 'TiO':1.623, 'VO':1.591, 'CrO':1.621, 'MnO':1.648, 'FeO':1.616, 'CuO':1.725}

datacsv={}
for nm in ['basis','charge','method','molecule','pseudopotential',
           'totalenergy','totalenergy-stocherr','totalenergy-syserr']:
  datacsv[nm]=[]

basis='vdz'
element='Fe'

mol=gto.Mole()
mol.ecp={}
mol.basis={}
for el in [element,'O']:
  mol.ecp[el]=gto.basis.parse_ecp(df[el]['ecp'])
  mol.basis[el]=gto.basis.parse(df[el][basis])
mol.charge=0
mol.spin=spins[element+'O']
mol.build(atom="%s 0. 0. 0.; O 0. 0. %g"%(element,re[element+'O']),verbose=4)

m=ROHF(mol)
m.level_shift=1000.0
dm=m.from_chk("../../../../HF/monoxides/"+element+basis+"0.chk")
hf=m.kernel(dm)
m.analyze()

from pyscf.shciscf import shci
mc = shci.SHCISCF(m, 9, 4+cas[element])
#mc.fcisolver.conv_tol = 1e-14
mc.fcisolver.mpiprefix="srun -n20"
mc.fcisolver.num_thrds=12
mc.verbose = 4
cas=mc.kernel()[0]
 
from pyscf.icmpspt import icmpspt
pt=icmpspt.icmpspt(mc,rdmM=500, PTM=1000,\
                          pttype="MRLCC",\
                          third_order=True,\
                          fully_ic=True,\
                          do_dm4=True)

datacsv['basis'].append(basis)
datacsv['charge'].append(0)
datacsv['method'].append('MRPT')
datacsv['molecule'].append(element)
datacsv['pseudopotential'].append('trail')
datacsv['totalenergy'].append(cas+pt)
datacsv['totalenergy-stocherr'].append(0.0)
datacsv['totalenergy-syserr'].append(0.0)
pd.DataFrame(datacsv).to_csv(element+".csv",index=False)

#INFO: ******************** input file end ********************


System: ('Linux', 'bnode0302.rc.int.colorado.edu', '3.10.0-514.41.1.el7.x86_64', '#1 SMP Wed Jan 17 10:26:16 EST 2018', 'x86_64', 'x86_64')  Threads 28
Python 2.7.11 (default, Mar 22 2016, 01:42:54) 
[GCC Intel(R) C++ gcc 4.8 mode]
numpy 1.11.1  scipy 0.17.1
Date: Wed Apr 18 13:51:34 2018
PySCF version 1.4.6
PySCF path  /projects/bamu3429/softwares/pyscf_uptodate/pyscf
GIT ORIG_HEAD f3591ef22170896a4cdc2aadaa6f5da388ffcadb
GIT HEAD      ref: refs/heads/master
GIT master branch  1847583fb1d2472321833d3c71c8b7008e5fabf5

[INPUT] VERBOSE 4
[INPUT] num atoms = 2
[INPUT] num electrons = 22
[INPUT] charge = 0
[INPUT] spin (= nelec alpha-beta = 2S) = 4
[INPUT] symmetry False subgroup None
[INPUT]  1 Fe     0.000000000000   0.000000000000   0.000000000000 AA    0.000000000000   0.000000000000   0.000000000000 Bohr
[INPUT]  2 O      0.000000000000   0.000000000000   1.616000000000 AA    0.000000000000   0.000000000000   3.053797417297 Bohr
[INPUT] ---------------- BASIS SET ---------------- 
[INPUT] l, kappa, [nprim/nctr], expnt,             c_1 c_2 ...
[INPUT] Fe
[INPUT] 0    0    [12   /1   ]  41.79315189       0.013363
                                21.4479766        -0.225831
                                13.50597996       1.092302
                                9.47978339        -1.379238
                                4.48116767        0.183004
                                2.00533715        0.377557
                                1.21557711        0.591529
                                0.52042955        0.236703
                                0.24120153        -0.029854
                                0.11142434        0.02048
                                0.05213724        -0.006828
                                0.02419858        0.002604
[INPUT] 0    0    [12   /1   ]  41.79315189       -0.002034
                                21.4479766        0.04181
                                13.50597996       -0.22265
                                9.47978339        0.296462
                                4.48116767        -0.039261
                                2.00533715        -0.090727
                                1.21557711        -0.230375
                                0.52042955        -0.197211
                                0.24120153        0.111234
                                0.11142434        0.439139
                                0.05213724        0.516418
                                0.02419858        0.126845
[INPUT] 0    0    [12   /1   ]  41.79315189       -0.004323
                                21.4479766        0.132016
                                13.50597996       -0.841007
                                9.47978339        1.270608
                                4.48116767        -0.357855
                                2.00533715        -1.172638
                                1.21557711        0.080918
                                0.52042955        0.564238
                                0.24120153        0.803759
                                0.11142434        0.166439
                                0.05213724        -0.599817
                                0.02419858        -0.320989
[INPUT] 0    0    [1    /1   ]  0.02419858           1
[INPUT] 0    0    [1    /1   ]  0.01123134           1
[INPUT] 1    0    [12   /1   ]  66.19105244       0.00032
                                34.58074578       -0.003142
                                17.77781378       0.029707
                                9.38371315        -0.152873
                                5.85185491        0.094627
                                3.39352009        0.227547
                                1.80084269        0.448024
                                0.88349057        0.318306
                                0.45376195        0.097682
                                0.18864625        0.012314
                                0.07756623        -0.001004
                                0.03189313        0.000474
[INPUT] 1    0    [12   /1   ]  66.19105244       -1.8e-05
                                34.58074578       0.000416
                                17.77781378       -0.005911
                                9.38371315        0.03555
                                5.85185491        -0.025962
                                3.39352009        -0.059781
                                1.80084269        -0.122371
                                0.88349057        -0.102075
                                0.45376195        0.039881
                                0.18864625        0.346137
                                0.07756623        0.528115
                                0.03189313        0.237416
[INPUT] 1    0    [12   /1   ]  66.19105244       -0.000834
                                34.58074578       0.002604
                                17.77781378       0.016549
                                9.38371315        -0.211504
                                5.85185491        0.182022
                                3.39352009        0.789997
                                1.80084269        0.110593
                                0.88349057        -0.853215
                                0.45376195        -0.426908
                                0.18864625        0.584503
                                0.07756623        0.418096
                                0.03189313        0.004159
[INPUT] 1    0    [1    /1   ]  0.03189313           1
[INPUT] 1    0    [1    /1   ]  0.01311358           1
[INPUT] 2    0    [10   /1   ]  58.21685909       0.000311
                                24.96806153       -0.010386
                                12.44413704       0.126915
                                5.48395408        0.166806
                                2.79137309        0.262721
                                1.34407118        0.316542
                                0.61230651        0.280074
                                0.27095461        0.158069
                                0.12811374        0.049028
                                0.05904405        0.008369
[INPUT] 2    0    [10   /1   ]  58.21685909       0.000264
                                24.96806153       0.008003
                                12.44413704       -0.131894
                                5.48395408        -0.228203
                                2.79137309        -0.382561
                                1.34407118        -0.063105
                                0.61230651        0.332607
                                0.27095461        0.402603
                                0.12811374        0.213988
                                0.05904405        0.04923
[INPUT] 2    0    [1    /1   ]  0.05904405           1
[INPUT] 2    0    [1    /1   ]  0.02721175           1
[INPUT] 3    0    [1    /1   ]  2.703381             1
[INPUT] 3    0    [1    /1   ]  1.2459129            1
[INPUT] O
[INPUT] 0    0    [10   /1   ]  57.663349         -0.002794
                                35.726816         0.023976
                                22.453757         -0.115974
                                14.732301         0.288033
                                9.739917          -0.274786
                                5.042008          -0.083789
                                2.157818          0.063778
                                1.002916          0.410182
                                0.421839          0.504044
                                0.173041          0.172152
[INPUT] 0    0    [1    /1   ]  0.222099             1
[INPUT] 0    0    [1    /1   ]  0.08884              1
[INPUT] 1    0    [10   /1   ]  52.47406          -0.000522
                                32.138432         0.004857
                                19.458579         -0.027749
                                11.839344         0.074258
                                7.91003           0.014369
                                3.670858          0.153479
                                1.53966           0.283685
                                0.647119          0.358201
                                0.267853          0.29559
                                0.107198          0.104889
[INPUT] 1    0    [1    /1   ]  0.252604             1
[INPUT] 1    0    [1    /1   ]  0.101042             1
[INPUT] 2    0    [1    /1   ]  1.223113             1
[INPUT] 2    0    [1    /1   ]  0.489245             1
nuclear repulsion = 31.4362699556436
number of shells = 24
number of NR pGTOs = 334
number of NR cGTOs = 76
basis = {'Fe': [[0, [41.79315189, 0.013363], [21.4479766, -0.225831], [13.50597996, 1.092302], [9.47978339, -1.379238], [4.48116767, 0.183004], [2.00533715, 0.377557], [1.21557711, 0.591529], [0.52042955, 0.236703], [0.24120153, -0.029854], [0.11142434, 0.02048], [0.05213724, -0.006828], [0.02419858, 0.002604]], [0, [41.79315189, -0.002034], [21.4479766, 0.04181], [13.50597996, -0.22265], [9.47978339, 0.296462], [4.48116767, -0.039261], [2.00533715, -0.090727], [1.21557711, -0.230375], [0.52042955, -0.197211], [0.24120153, 0.111234], [0.11142434, 0.439139], [0.05213724, 0.516418], [0.02419858, 0.126845]], [0, [41.79315189, -0.004323], [21.4479766, 0.132016], [13.50597996, -0.841007], [9.47978339, 1.270608], [4.48116767, -0.357855], [2.00533715, -1.172638], [1.21557711, 0.080918], [0.52042955, 0.564238], [0.24120153, 0.803759], [0.11142434, 0.166439], [0.05213724, -0.599817], [0.02419858, -0.320989]], [0, [0.02419858, 1.0]], [0, [0.01123134, 1.0]], [1, [66.19105244, 0.00032], [34.58074578, -0.003142], [17.77781378, 0.029707], [9.38371315, -0.152873], [5.85185491, 0.094627], [3.39352009, 0.227547], [1.80084269, 0.448024], [0.88349057, 0.318306], [0.45376195, 0.097682], [0.18864625, 0.012314], [0.07756623, -0.001004], [0.03189313, 0.000474]], [1, [66.19105244, -1.8e-05], [34.58074578, 0.000416], [17.77781378, -0.005911], [9.38371315, 0.03555], [5.85185491, -0.025962], [3.39352009, -0.059781], [1.80084269, -0.122371], [0.88349057, -0.102075], [0.45376195, 0.039881], [0.18864625, 0.346137], [0.07756623, 0.528115], [0.03189313, 0.237416]], [1, [66.19105244, -0.000834], [34.58074578, 0.002604], [17.77781378, 0.016549], [9.38371315, -0.211504], [5.85185491, 0.182022], [3.39352009, 0.789997], [1.80084269, 0.110593], [0.88349057, -0.853215], [0.45376195, -0.426908], [0.18864625, 0.584503], [0.07756623, 0.418096], [0.03189313, 0.004159]], [1, [0.03189313, 1.0]], [1, [0.01311358, 1.0]], [2, [58.21685909, 0.000311], [24.96806153, -0.010386], [12.44413704, 0.126915], [5.48395408, 0.166806], [2.79137309, 0.262721], [1.34407118, 0.316542], [0.61230651, 0.280074], [0.27095461, 0.158069], [0.12811374, 0.049028], [0.05904405, 0.008369]], [2, [58.21685909, 0.000264], [24.96806153, 0.008003], [12.44413704, -0.131894], [5.48395408, -0.228203], [2.79137309, -0.382561], [1.34407118, -0.063105], [0.61230651, 0.332607], [0.27095461, 0.402603], [0.12811374, 0.213988], [0.05904405, 0.04923]], [2, [0.05904405, 1.0]], [2, [0.02721175, 1.0]], [3, [2.703381, 1.0]], [3, [1.2459129, 1.0]]], 'O': [[0, [57.663349, -0.002794], [35.726816, 0.023976], [22.453757, -0.115974], [14.732301, 0.288033], [9.739917, -0.274786], [5.042008, -0.083789], [2.157818, 0.063778], [1.002916, 0.410182], [0.421839, 0.504044], [0.173041, 0.172152]], [0, [0.222099, 1.0]], [0, [0.08884, 1.0]], [1, [52.47406, -0.000522], [32.138432, 0.004857], [19.458579, -0.027749], [11.839344, 0.074258], [7.91003, 0.014369], [3.670858, 0.153479], [1.53966, 0.283685], [0.647119, 0.358201], [0.267853, 0.29559], [0.107198, 0.104889]], [1, [0.252604, 1.0]], [1, [0.101042, 1.0]], [2, [1.223113, 1.0]], [2, [0.489245, 1.0]]]}
ecp = {'Fe': [10, [[-1, [[], [[16.90683491, 16.0]], [[18.40258134, 26847.81569895], [6.30300831, -133.54888707], [18.42848726, -26765.4049232], [18.43432023, 1.00742417]], [[7.01300654, 270.50935856]]]], [0, [[], [], [[9.62463353, 20308.8999348], [9.1270955, -17595.21707731], [7.5416384, 1884.69012383], [12.70900949, -4483.50209856], [8.14863339, -1094.38597968], [16.27611739, 1032.95376659]], []]], [1, [[], [], [[11.36514719, -905.00711112], [14.56762424, 34640.9358259], [15.05861359, -42299.94223895], [17.41337089, 10633.68808757], [18.3746752, -5844.19723669], [17.04734437, 3803.80414779]], []]], [2, [[], [], [[10.13935738, -11031.18647055], [13.45796076, 16711.37502047], [10.97387824, 37989.95033676], [11.92919033, -41782.92514683], [17.7123012, 3812.58339812], [17.32108913, -5718.00854971]], []]]]], 'O': [2, [[-1, [[], [[10.27717748, 6.0]], [[15.99566749, 1232.50197768], [10.46901775, -696.47008301], [14.6384801, -2654.22657081], [12.57591181, 2101.67732548]], [[7.77739102, 61.66306486]]]], [0, [[], [], [[12.39426073, -656683.37638839], [12.38126171, 657858.57667068], [8.57671033, 511.50098405], [9.89256508, -2579.54665641], [28.05641604, -57.68129584], [17.24753607, 970.30940152]], []]], [1, [[], [], [[14.78918914, -363027.24258186], [14.82014018, 361852.52314043], [22.89622221, -1300.20069256], [8.51331893, -181.96869573], [11.48609758, 2194.87589959], [27.22017524, 451.19906206]], []]]]]}
CPU time:         3.79


******** <class 'pyscf.scf.rohf.ROHF'> flags ********
method = ROHF
initial guess = minao
damping factor = 0
level shift factor = 1000.0
DIIS = <class 'pyscf.scf.diis.CDIIS'>
DIIS start cycle = 1
DIIS space = 8
SCF tol = 1e-09
SCF gradient tol = None
max. SCF cycles = 50
direct_scf = True
direct_scf_tol = 1e-13
chkfile to save SCF result = /rc_scratch/bamu3429/tmpTIpyV8
max_memory 4000 MB (current use 156 MB)
num. doubly occ = 9  num. singly occ = 4
Set gradient conv threshold to 3.16228e-05
init E= -138.660096924392
  HOMO = 499.856027867949  LUMO = 999.963178162033
cycle= 1 E= -138.660096924393  delta_E= -5.4e-13  |g|= 1.28e-05  |ddm|= 8.55e-08
  HOMO = -0.143972131512916  LUMO = -0.0368218391643899
Extra cycle  E= -138.660096924481  delta_E= -8.83e-11  |g|= 7.83e-06  |ddm|= 2.72e-05
converged SCF energy = -138.660096924481
**** MO energy ****
                Roothaan           | alpha              | beta
MO #1   energy= -4.4067386380459   | -4.57946228889988  | -4.23401497258555  occ= 2
MO #2   energy= -2.79915181965673  | -3.04698887971446  | -2.55131482604852  occ= 2
MO #3   energy= -2.78789475267531  | -2.97541133455184  | -2.60037820947727  occ= 2
MO #4   energy= -2.7878947526753   | -2.97541133455185  | -2.60037820947728  occ= 2
MO #5   energy= -1.1183260068398   | -1.13264283243245  | -1.10400911556561  occ= 2
MO #6   energy= -0.542090704932449 | -0.602525132096026 | -0.481656277768877 occ= 2
MO #7   energy= -0.414868815000675 | -0.445941954461622 | -0.383792933011121 occ= 2
MO #8   energy= -0.387195846227232 | -0.414931678148942 | -0.359459596297585 occ= 2
MO #9   energy= -0.387195846227226 | -0.414931678148937 | -0.359459596297582 occ= 2
MO #10  energy= -0.152958101330176 | -0.570287092597774 | 0.264371483216442  occ= 1
MO #11  energy= -0.147319584339173 | -0.622509067527293 | 0.327868867083071  occ= 1
MO #12  energy= -0.147319584339168 | -0.62250906752729  | 0.327868867083077  occ= 1
MO #13  energy= -0.143972131512916 | -0.64894316240466  | 0.360998720191111  occ= 1
MO #14  energy= -0.0368218391643899 | -0.0476564916532904 | -0.0259886997825345 occ= 0
MO #15  energy= 0.0180678317576362 | 0.0146339579403534 | 0.0215015129408687 occ= 0
MO #16  energy= 0.0187113469078407 | 0.0174659242879734 | 0.0199568697874491 occ= 0
MO #17  energy= 0.0187113469078409 | 0.017465924287973  | 0.0199568697874488 occ= 0
MO #18  energy= 0.0371995708896149 | 0.0367168764777283 | 0.0376822389355465 occ= 0
MO #19  energy= 0.0710035634596478 | 0.0671377562783006 | 0.0748694871687574 occ= 0
MO #20  energy= 0.0710035634596503 | 0.0671377562783045 | 0.0748694871687592 occ= 0
MO #21  energy= 0.0793976148344599 | 0.0792558744751911 | 0.0795393551937303 occ= 0
MO #22  energy= 0.0794398338844998 | 0.0791523531204575 | 0.0797273286409463 occ= 0
MO #23  energy= 0.0889450837034663 | 0.0875558003532471 | 0.0903343166441556 occ= 0
MO #24  energy= 0.104811560415556  | 0.101745780139731  | 0.107877388558951  occ= 0
MO #25  energy= 0.104811560415557  | 0.10174578013973   | 0.107877388558951  occ= 0
MO #26  energy= 0.142617514910932  | 0.139205361102745  | 0.146029460917717  occ= 0
MO #27  energy= 0.161839849780462  | 0.149485174543648  | 0.174194465000269  occ= 0
MO #28  energy= 0.228791283939995  | 0.222972909066729  | 0.234609753752874  occ= 0
MO #29  energy= 0.228791283939997  | 0.222972909066729  | 0.234609753752875  occ= 0
MO #30  energy= 0.233500759274347  | 0.226190809736971  | 0.24081051682611   occ= 0
MO #31  energy= 0.244063153365422  | 0.240874707068616  | 0.24725159966223   occ= 0
MO #32  energy= 0.2466976075236    | 0.239170460012174  | 0.254224849402656  occ= 0
MO #33  energy= 0.321155991585094  | 0.301797426561916  | 0.340514563791067  occ= 0
MO #34  energy= 0.321155991585113  | 0.301797426561933  | 0.340514563791086  occ= 0
MO #35  energy= 0.448756830877372  | 0.44032435489654   | 0.457189151742224  occ= 0
MO #36  energy= 0.49287112234744   | 0.490897126010956  | 0.494845100942901  occ= 0
MO #37  energy= 0.492871122347442  | 0.490897126010958  | 0.494845100942903  occ= 0
MO #38  energy= 0.494375151779852  | 0.484378328162535  | 0.504371789929081  occ= 0
MO #39  energy= 1.24142304776332   | 1.21417170243077   | 1.26867436723335   occ= 0
MO #40  energy= 1.44328537622084   | 1.40191511277482   | 1.48465588248543   occ= 0
MO #41  energy= 1.44328537622084   | 1.40191511277482   | 1.48465588248543   occ= 0
MO #42  energy= 1.44689355795484   | 1.44070793124272   | 1.45307918466697   occ= 0
MO #43  energy= 1.45198009868563   | 1.43911646752172   | 1.46484374121731   occ= 0
MO #44  energy= 1.58586079931277   | 1.58188185186899   | 1.58983975212618   occ= 0
MO #45  energy= 1.62089539445629   | 1.61659002959555   | 1.62520075670962   occ= 0
MO #46  energy= 1.62089539445631   | 1.61659002959558   | 1.62520075670964   occ= 0
MO #47  energy= 1.76146709204354   | 1.73316984941396   | 1.78976433467313   occ= 0
MO #48  energy= 1.80267832150858   | 1.7037325033208    | 1.90162420065893   occ= 0
MO #49  energy= 1.95345516891918   | 1.9008655161209    | 2.00604463271536   occ= 0
MO #50  energy= 2.12626191199843   | 2.05361741195268   | 2.19890647714819   occ= 0
MO #51  energy= 2.12626191199844   | 2.0536174119527    | 2.19890647714821   occ= 0
MO #52  energy= 2.15557655784248   | 2.10299096565371   | 2.20816160658632   occ= 0
MO #53  energy= 2.34243723539666   | 2.31192708135994   | 2.3729474053273    occ= 0
MO #54  energy= 3.45057366161002   | 3.38617736271145   | 3.5149699581494    occ= 0
MO #55  energy= 3.53418247282337   | 3.46681419909977   | 3.6015507283753    occ= 0
MO #56  energy= 3.53418247282337   | 3.46681419909978   | 3.6015507283753    occ= 0
MO #57  energy= 3.5961905824548    | 3.52886829647314   | 3.663512868445     occ= 0
MO #58  energy= 3.59619058245481   | 3.52886829647314   | 3.66351286844499   occ= 0
MO #59  energy= 3.60173477728045   | 3.53280610087877   | 3.67066345368212   occ= 0
MO #60  energy= 3.61277375192      | 3.5134631939251    | 3.71208431154406   occ= 0
MO #61  energy= 3.81380023143318   | 3.73408862375309   | 3.89351186052018   occ= 0
MO #62  energy= 3.81380023143318   | 3.73408862375309   | 3.89351186052019   occ= 0
MO #63  energy= 4.29802547245796   | 4.2925176384949    | 4.30353330642101   occ= 0
MO #64  energy= 4.29803978845431   | 4.29194913573183   | 4.30413044138702   occ= 0
MO #65  energy= 4.42286229975022   | 4.41803007683366   | 4.42769452572315   occ= 0
MO #66  energy= 4.42286229975022   | 4.41803007683366   | 4.42769452572316   occ= 0
MO #67  energy= 4.4865076846705    | 4.42017801077063   | 4.55283735434701   occ= 0
MO #68  energy= 4.64471271555828   | 4.61236639926708   | 4.67705902401856   occ= 0
MO #69  energy= 8.65636234374826   | 8.62345180310101   | 8.68927288316272   occ= 0
MO #70  energy= 9.68200049457578   | 9.60181499708972   | 9.76218599206183   occ= 0
MO #71  energy= 9.68293592223097   | 9.61329837640024   | 9.75257346788148   occ= 0
MO #72  energy= 9.68293592223098   | 9.61329837640025   | 9.75257346788149   occ= 0
MO #73  energy= 9.68486867088606   | 9.57188907838936   | 9.79784826004071   occ= 0
MO #74  energy= 9.787990610827     | 9.68815499435921   | 9.88782621925969   occ= 0
MO #75  energy= 9.78799061082702   | 9.68815499435922   | 9.8878262192597    occ= 0
MO #76  energy= 9.96781655801465   | 9.87521379836882   | 10.0604193036113   occ= 0
 ** Mulliken pop on meta-lowdin orthogonal AOs  **
 ** Mulliken pop  **
pop of  0Fe 3s        1.99994
pop of  0Fe 4s        0.37152
pop of  0Fe 5s        0.00774
pop of  0Fe 6s        0.00558
pop of  0Fe 7s        0.00144
pop of  0Fe 3px       1.99959
pop of  0Fe 3py       1.99959
pop of  0Fe 3pz       1.99870
pop of  0Fe 4px       0.04828
pop of  0Fe 4py       0.04828
pop of  0Fe 4pz       0.00340
pop of  0Fe 5px       0.00228
pop of  0Fe 5py       0.00228
pop of  0Fe 5pz       0.00129
pop of  0Fe 6px       0.00474
pop of  0Fe 6py       0.00474
pop of  0Fe 6pz       0.00186
pop of  0Fe 7px       0.00068
pop of  0Fe 7py       0.00068
pop of  0Fe 7pz       0.00039
pop of  0Fe 3dxy      1.99981
pop of  0Fe 3dyz      1.07004
pop of  0Fe 3dz^2     1.08136
pop of  0Fe 3dxz      1.07004
pop of  0Fe 3dx2-y2    0.99922
pop of  0Fe 4dxy      0.00005
pop of  0Fe 4dyz      0.00269
pop of  0Fe 4dz^2     0.00008
pop of  0Fe 4dxz      0.00269
pop of  0Fe 4dx2-y2    0.00037
pop of  0Fe 5dxy      0.00000
pop of  0Fe 5dyz      0.00162
pop of  0Fe 5dz^2     0.00084
pop of  0Fe 5dxz      0.00162
pop of  0Fe 5dx2-y2    0.00033
pop of  0Fe 6dxy      0.00000
pop of  0Fe 6dyz      0.00027
pop of  0Fe 6dz^2     0.00032
pop of  0Fe 6dxz      0.00027
pop of  0Fe 6dx2-y2    0.00001
pop of  0Fe 4fy^3     0.00003
pop of  0Fe 4fxyz     0.00002
pop of  0Fe 4fyz^2    0.00003
pop of  0Fe 4fz^3     0.00006
pop of  0Fe 4fxz^2    0.00003
pop of  0Fe 4fzx^2    0.00001
pop of  0Fe 4fx^3     0.00003
pop of  0Fe 5fy^3     0.00003
pop of  0Fe 5fxyz     0.00011
pop of  0Fe 5fyz^2    0.00026
pop of  0Fe 5fz^3     0.00019
pop of  0Fe 5fxz^2    0.00026
pop of  0Fe 5fzx^2    0.00006
pop of  0Fe 5fx^3     0.00003
pop of  1O 2s        1.90111
pop of  1O 3s        0.00193
pop of  1O 4s        0.00459
pop of  1O 2px       1.83946
pop of  1O 2py       1.83946
pop of  1O 2pz       1.60395
pop of  1O 3px       0.00771
pop of  1O 3py       0.00771
pop of  1O 3pz       0.00457
pop of  1O 4px       0.01471
pop of  1O 4py       0.01471
pop of  1O 4pz       0.00397
pop of  1O 3dxy      0.00001
pop of  1O 3dyz      0.00097
pop of  1O 3dz^2     0.00137
pop of  1O 3dxz      0.00097
pop of  1O 3dx2-y2    0.00000
pop of  1O 4dxy      0.00000
pop of  1O 4dyz      0.00661
pop of  1O 4dz^2     0.00379
pop of  1O 4dxz      0.00661
pop of  1O 4dx2-y2    0.00001
 ** Mulliken atomic charges  **
charge of  0Fe =      1.26422
charge of  1O =     -1.26422

******** <class 'pyscf.mcscf.mc1step.CASSCF'> flags ********
CAS (8e+4e, 9o), ncore = 5, nvir = 62
max_cycle_macro = 50
max_cycle_micro = 4
conv_tol = 1e-07
conv_tol_grad = None
orbital rotation max_stepsize = 0.02
augmented hessian ah_max_cycle = 30
augmented hessian ah_conv_tol = 1e-12
augmented hessian ah_linear dependence = 1e-14
augmented hessian ah_level shift = 0
augmented hessian ah_start_tol = 2.5
augmented hessian ah_start_cycle = 3
augmented hessian ah_grad_trust_region = 3
kf_trust_region = 3
kf_interval = 4
ci_response_space = 4
ci_grad_trust_region = 3
with_dep4 0
natorb = False
canonicalization = True
sorting_mo_energy = False
chkfile = ./scratch/50554/tmpJ4Lzjr
max_memory 4000 MB (current use 239 MB)
internal_rotation = False

******** SHCI flags ********
executable             = /home/bamu3429/softwares/dice/Dice
mpiprefix              = srun -n20
scratchDirectory       = ./scratch/50554
integralFile           = ./FCIDUMP
configFile             = ./input.dat
outputFile             = ./output.dat
maxIter                = 6
sweep_iter             = []
sweep_epsilon          = []
nPTiter                = 0
Stochastic             = True
fullrestart            = False
restart                = False
num_thrds              = 12
memory                 = None

CASCI E = -138.672083971137  S^2 = 6.0000000
Set conv_tol_grad to 0.000316228
macro iter 1 (21 JK  4 micro), CASSCF E = -138.72517878537  dE = -0.053094814  S^2 = 6.0000000
               |grad[o]|=0.087  |grad[c]|= None  |ddm|=0.431
macro iter 2 (12 JK  4 micro), CASSCF E = -138.745851996586  dE = -0.020673211  S^2 = 6.0000000
               |grad[o]|=0.152  |grad[c]|= None  |ddm|=0.309
macro iter 3 (9 JK  4 micro), CASSCF E = -138.746013478891  dE = -0.0001614823  S^2 = 6.0000000
               |grad[o]|=0.0154  |grad[c]|= None  |ddm|=0.0217
macro iter 4 (8 JK  3 micro), CASSCF E = -138.746013689508  dE = -2.1061666e-07  S^2 = 6.0000000
               |grad[o]|=0.000487  |grad[c]|= None  |ddm|=0.000755
macro iter 5 (3 JK  1 micro), CASSCF E = -138.746013692825  dE = -3.317723e-09  S^2 = 6.0000000
               |grad[o]|=6.61e-05  |grad[c]|= None  |ddm|=    0
1-step CASSCF converged in 5 macro (53 JK 16 micro) steps
CASSCF canonicalization
CASSCF energy = -138.746013692825


--------------------------------------------------
                 ICMPSPT CALCULATION              
--------------------------------------------------

Perturbation type: MRLCC
With fully internally contracted scheme
With third order correction

Preparing necessary RDMs
......production of RDMs took      99.68 sec
Reading binary 4RDM from DICE
......reading the RDM took         29.87 sec

(GOOD) Trace 4RDM:  11880.0 =   12*   11*   10*    9
(GOOD) Trace 3RDM:   1320.0 =   12*   11*   10
(GOOD) Trace 2RDM:    132.0 =   12*   11
(GOOD) Trace 1RDM:     12.0 =   12

Producing the integrals
......production of INT took      40.57 sec

Energy_core = -131.44091677
Energy      = -138.74601369

WARNING: Have to use natural orbitals from CAASCF
         offdiagonal elements:    0.84341696

Basic ingredients written to int/
......savings of INGREDIENTS took      41.66 sec

Second-order:
perturber CCVV --        -0.081277267
perturber CCAV --        -0.035832152
perturber ACVV --        -0.164165050
perturber CCAA --        -0.018058617
perturber AAVV --        -0.241950327
perturber CAAV --        -0.123826498
perturber AAAV --        -0.057174575
perturber AAAC --        -0.001788822
Total:                   -0.724073307

Third-order:              0.002808880

Total PT       --        -0.721264427

