 &FCI NORB=6 ,NELEC=7 ,MS2=5,
  ORBSYM=1,1,1,1,1,1,
  ISYM=1,
 &END
  2.700009070991e-01    1  1  1  1
  9.421505580014e-09    2  1  1  1
  6.966966785844e-03    2  1  2  1
  3.463812361105e-01    2  2  1  1
  3.346643544141e-04    2  2  2  1
  8.661089367351e-01    2  2  2  2
  6.319814845395e-11    3  1  1  1
  7.105083573189e-07    3  1  2  2
  6.966966764930e-03    3  1  3  1
  7.101624291111e-07    3  2  2  1
  1.125565004158e-04    3  2  3  1
  1.885595106458e-02    3  2  3  2
  3.463812361689e-01    3  3  1  1
  1.126103753228e-04    3  3  2  1
  8.283970351953e-01    3  3  2  2
  2.190359455805e-06    3  3  3  1
  8.661089379166e-01    3  3  3  3
 -3.944966629955e-10    4  1  2  2
  5.462260003185e-09    4  1  3  2
  6.287761665391e-09    4  1  3  3
  6.966966208851e-03    4  1  4  1
 -3.951965289515e-10    4  2  2  1
  5.462320065371e-09    4  2  3  1
  7.351190161146e-08    4  2  3  2
  8.170387154599e-08    4  2  3  3
  1.122134016993e-03    4  2  4  1
  3.239262634593e-02    4  2  4  2
  5.462237375985e-09    4  3  2  1
 -1.470238388317e-07    4  3  2  2
  6.287093650709e-09    4  3  3  1
 -4.085193772330e-08    4  3  3  2
  6.350869573585e-06    4  3  4  1
 -9.221047121984e-06    4  3  4  2
  3.390166885928e-02    4  3  4  3
  3.463812381693e-01    4  4  1  1
  1.122198299665e-03    4  4  2  1
  8.013236900241e-01    4  4  2  2
  6.351274198524e-06    4  4  3  1
  1.844208589947e-05    4  4  3  2
  7.983056069595e-01    4  4  3  3
  5.873187689955e-10    4  4  4  1
  8.661089514393e-01    4  4  4  4
 -1.126692161594e-08    5  1  2  2
 -3.812908227580e-09    5  1  3  2
  1.213559822652e-09    5  1  3  3
 -6.745095591590e-06    5  1  4  2
  1.182431647050e-03    5  1  4  3
 -6.237129450766e-09    5  1  4  4
  6.966966101319e-03    5  1  5  1
 -1.126721311053e-08    5  2  2  1
 -3.812937657455e-09    5  2  3  1
  4.599528838403e-08    5  2  3  2
 -1.437947787362e-07    5  2  3  3
 -6.745110729274e-06    5  2  4  1
  8.244227043477e-06    5  2  4  2
 -1.585426000093e-02    5  2  4  3
  1.073846638255e-08    5  2  4  4
 -1.234682515105e-03    5  2  5  1
  3.527325430140e-02    5  2  5  2
 -3.812926490575e-09    5  3  2  1
 -9.199057470666e-08    5  3  2  2
  1.213332703968e-09    5  3  3  1
  7.189738352600e-08    5  3  3  2
  1.182434061291e-03    5  3  4  1
  1.440908053278e-02    5  3  4  2
 -9.373299715385e-06    5  3  4  3
  5.077708937607e-09    5  3  4  4
 -7.080822377566e-06    5  3  5  1
  8.328818128792e-06    5  3  5  2
  3.390177542060e-02    5  3  5  3
 -6.745172396286e-06    5  4  2  1
 -1.648844463835e-05    5  4  2  2
  1.182445000666e-03    5  4  3  1
  1.445178665929e-03    5  4  3  2
  1.874658988250e-05    5  4  3  3
 -6.237338027340e-09    5  4  4  1
 -5.369238352251e-09    5  4  4  2
 -2.538865354941e-09    5  4  4  3
 -6.420168723023e-09    5  4  5  1
  3.840979866024e-08    5  4  5  2
 -6.373335332457e-08    5  4  5  3
  3.390172544810e-02    5  4  5  4
  3.463812386677e-01    5  5  1  1
 -1.234642797870e-03    5  5  2  1
  7.955624388832e-01    5  5  2  2
 -7.080557931420e-06    5  5  3  1
 -1.665762567888e-05    5  5  3  2
  7.983053954088e-01    5  5  3  3
 -6.419458216959e-09    5  5  4  1
 -7.681958188747e-08    5  5  4  2
  1.274666696626e-07    5  5  4  3
  7.983055021157e-01    5  5  4  4
  1.494124503789e-08    5  5  5  1
  8.661089545827e-01    5  5  5  5
 -3.781859537796e-08    6  1  1  1
  6.529169167576e-12    6  1  2  1
 -1.323955309342e-03    6  1  2  2
  2.398838603387e-07    6  1  3  2
 -1.360940497569e-03    6  1  3  3
 -3.745851917867e-10    6  1  4  2
  1.545602474906e-09    6  1  4  3
  7.776231933964e-04    6  1  4  4
  7.661075321405e-09    6  1  5  2
  5.143479340691e-09    6  1  5  3
  7.640977985531e-08    6  1  5  4
  5.826707686709e-04    6  1  5  5
  6.966965947088e-03    6  1  6  1
  3.515544772820e-11    6  2  1  1
 -1.323763612395e-03    6  2  2  1
  1.238274896763e-09    6  2  2  2
  2.398863772140e-07    6  2  3  1
 -1.078668492183e-05    6  2  3  2
  3.326315769394e-03    6  2  3  3
 -3.746322299894e-10    6  2  4  1
  1.930963697114e-09    6  2  4  2
  1.422668611501e-08    6  2  4  3
 -1.895681069307e-02    6  2  4  4
  7.661183050531e-09    6  2  5  1
  3.142649034944e-08    6  2  5  2
  3.072519522827e-08    6  2  5  3
  9.976265623768e-05    6  2  5  4
  1.563049506761e-02    6  2  5  5
 -3.345995692762e-04    6  2  6  1
  3.896283356910e-02    6  2  6  2
  2.398864609963e-07    6  3  2  1
  2.157337695262e-05    6  3  2  2
 -1.360749192695e-03    6  3  3  1
 -1.663157251741e-03    6  3  3  2
  7.639796299180e-12    6  3  3  3
  1.545587357869e-09    6  3  4  1
 -6.224809868587e-08    6  3  4  2
 -2.677174289092e-08    6  3  4  3
 -1.092509306316e-04    6  3  4  4
  5.143490635598e-09    6  3  5  1
 -1.294421598780e-08    6  3  5  2
  1.391017977273e-09    6  3  5  3
 -1.747226204279e-02    6  3  5  4
  8.767755370831e-05    6  3  5  5
 -2.170101889599e-06    6  3  6  1
  8.922308015884e-07    6  3  6  2
  3.882526973410e-02    6  3  6  3
 -3.745891627404e-10    6  4  2  1
 -3.861918206703e-09    6  4  2  2
  1.545621740754e-09    6  4  3  1
  4.802142576694e-08    6  4  3  2
  5.354351217822e-08    6  4  3  3
  7.778368462218e-04    6  4  4  1
  9.478406558498e-03    6  4  4  2
  5.462547194390e-05    6  4  4  3
  7.641016667441e-08    6  4  5  1
 -5.799898215182e-05    6  4  5  2
  9.987760904790e-03    6  4  5  3
 -3.281752611443e-08    6  4  5  4
 -4.968159086497e-08    6  4  5  5
 -5.806446978545e-11    6  4  6  1
  2.442142822542e-09    6  4  6  2
 -9.778555758180e-09    6  4  6  3
  2.528864836620e-02    6  4  6  4
  7.661155491180e-09    6  5  2  1
 -6.285303142519e-08    6  5  2  2
  5.143529092663e-09    6  5  3  1
 -1.778099266632e-08    6  5  3  2
 -2.782043651369e-09    6  5  3  3
  7.641021003422e-08    6  5  4  1
 -4.176369157051e-05    6  5  4  2
  7.484504193218e-03    6  5  4  3
  6.563501709121e-08    6  5  4  4
  5.828822570844e-04    6  5  5  1
 -7.815249300993e-03    6  5  5  2
 -4.383878717143e-05    6  5  5  3
  2.484078450443e-08    6  5  5  4
  1.350342466712e-09    6  5  6  1
 -6.652813494071e-08    6  5  6  2
 -4.345641952655e-08    6  5  6  3
  1.129072614857e-06    6  5  6  4
  2.240791474789e-02    6  5  6  5
  3.463812391954e-01    6  6  1  1
 -3.345505075069e-04    6  6  2  1
  7.881832740999e-01    6  6  2  2
 -2.169786163416e-06    6  6  3  1
 -1.784456858557e-06    6  6  3  2
  7.884584015652e-01    6  6  3  3
 -5.733500113264e-11    6  6  4  1
 -4.884283632543e-09    6  6  4  2
  1.955709141824e-08    6  6  4  3
  8.155316621141e-01    6  6  4  4
  1.350642584693e-09    6  6  5  1
  1.330562994413e-07    6  6  5  2
  8.691286255212e-08    6  6  5  3
 -2.258144536364e-06    6  6  5  4
  8.212931299148e-01    6  6  5  5
  1.323509771937e-03    6  6  6  1
 -1.112251415427e-09    6  6  6  2
 -7.359043836466e-12    6  6  6  3
  8.661089627742e-01    6  6  6  6
 -2.235063645647e+00    1  1  0  0
 -2.556718202407e-07    2  1  0  0
 -4.403513511718e+00    2  2  0  0
 -1.649304330118e-09    3  1  0  0
 -2.215422958889e-12    3  2  0  0
 -4.403513513371e+00    3  3  0  0
 -3.496303943144e-12    4  1  0  0
 -4.403513540591e+00    4  4  0  0
 -1.197831261782e-12    5  1  0  0
 -4.403513546896e+00    5  5  0  0
  1.000477760059e-06    6  1  0  0
 -2.006780150314e-10    6  2  0  0
 -4.403513554207e+00    6  6  0  0
    -88.448979338919   0  0  0  0
