#INFO: **** input file is /projects/bamu3429/BENCHMARK/fresh_atoms/MRPT/vqz/atoms/Mn_0/mrpt.py ****
import json
from pyscf import gto,scf,mcscf, fci, lo, ci, cc
from pyscf.scf import ROHF, UHF,ROKS
import numpy as np
import pandas as pd

# THIS IS WERE IT STARTS ====================================

df=json.load(open("../../../trail.json"))

spins={'Sc':1, 'Ti':2, 'V':3, 'Cr':6, 'Mn':5, 'Fe':4, 'Cu':1}

nd={'Sc':(1,0), 'Ti':(2,0), 'V':(3,0), 'Cr':(5,0), 'Mn':(5,0), 'Fe':(5,1), 'Cu':(5,5)}

cas={'Sc':3, 'Ti':4, 'V':5, 'Cr':6, 'Mn':7, 'Fe':8, 'Cu':11}

datacsv={}
for nm in ['atom','charge','method','basis','pseudopotential','hf',
           'totalenergy','totalenergy-stocherr','totalenergy-syserr']:
  datacsv[nm]=[]

basis='vqz'
el='Mn'
charge=0

mol=gto.Mole()
mol.ecp={}
mol.basis={}
mol.ecp[el]=gto.basis.parse_ecp(df[el]['ecp'])
mol.basis[el]=gto.basis.parse(df[el][basis])
mol.charge=charge
if el == 'Cr' or el == 'Cu':
  mol.spin=spins[el]-charge
else:
  mol.spin=spins[el]+charge
mol.build(atom="%s 0. 0. 0."%el,verbose=4)

m=ROHF(mol)
m.level_shift=1000.0
dm=m.from_chk("../../../../HF/atoms/"+el+basis+str(charge)+".chk")
hf=m.kernel(dm)
m.analyze()

from pyscf.shciscf import shci
mc = shci.SHCISCF(m, 6, cas[el]-charge)
#mc.fcisolver.conv_tol = 1e-14
mc.fcisolver.mpiprefix="srun -n20"
mc.fcisolver.num_thrds=12
mc.verbose = 4
cas=mc.kernel()[0]
 
from pyscf.icmpspt import icmpspt
pt=icmpspt.icmpspt(mc,rdmM=500, PTM=1000,\
                          pttype="MRLCC",\
                          third_order=True,\
                          fully_ic=True,\
                          do_dm4=True)

datacsv['atom'].append(el)
datacsv['charge'].append(charge)
datacsv['method'].append('MRPT')
datacsv['basis'].append(basis)
datacsv['pseudopotential'].append('trail')
datacsv['hf'].append(hf)
datacsv['totalenergy'].append(cas+pt)
datacsv['totalenergy-stocherr'].append(0.0)
datacsv['totalenergy-syserr'].append(0.0)
pd.DataFrame(datacsv).to_csv(el+".csv",index=False)

#INFO: ******************** input file end ********************


System: ('Linux', 'bnode0302.rc.int.colorado.edu', '3.10.0-514.41.1.el7.x86_64', '#1 SMP Wed Jan 17 10:26:16 EST 2018', 'x86_64', 'x86_64')  Threads 28
Python 2.7.11 (default, Mar 22 2016, 01:42:54) 
[GCC Intel(R) C++ gcc 4.8 mode]
numpy 1.11.1  scipy 0.17.1
Date: Thu Apr 19 10:33:27 2018
PySCF version 1.4.6
PySCF path  /projects/bamu3429/softwares/pyscf_uptodate/pyscf
GIT ORIG_HEAD f3591ef22170896a4cdc2aadaa6f5da388ffcadb
GIT HEAD      ref: refs/heads/master
GIT master branch  1847583fb1d2472321833d3c71c8b7008e5fabf5

[INPUT] VERBOSE 4
[INPUT] num atoms = 1
[INPUT] num electrons = 15
[INPUT] charge = 0
[INPUT] spin (= nelec alpha-beta = 2S) = 5
[INPUT] symmetry False subgroup None
[INPUT]  1 Mn     0.000000000000   0.000000000000   0.000000000000 AA    0.000000000000   0.000000000000   0.000000000000 Bohr
[INPUT] ---------------- BASIS SET ---------------- 
[INPUT] l, kappa, [nprim/nctr], expnt,             c_1 c_2 ...
[INPUT] Mn
[INPUT] 0    0    [12   /1   ]  41.19094709       0.0124
                                21.94503151       -0.141461
                                12.89081507       0.669584
                                8.14876869        -1.015431
                                3.94904809        0.149151
                                1.91298055        0.350677
                                1.10736282        0.627006
                                0.4793266         0.235349
                                0.22675293        -0.024214
                                0.10639652        0.017357
                                0.05000494        -0.005272
                                0.0234982         0.002181
[INPUT] 0    0    [12   /1   ]  41.19094709       -0.002036
                                21.94503151       0.02709
                                12.89081507       -0.142056
                                8.14876869        0.229945
                                3.94904809        -0.035538
                                1.91298055        -0.085336
                                1.10736282        -0.24355
                                0.4793266         -0.201798
                                0.22675293        0.098761
                                0.10639652        0.439512
                                0.05000494        0.524416
                                0.0234982         0.13192
[INPUT] 0    0    [12   /1   ]  41.19094709       -0.004856
                                21.94503151       0.092685
                                12.89081507       -0.597148
                                8.14876869        1.137589
                                3.94904809        -0.390492
                                1.91298055        -1.331371
                                1.10736282        0.125193
                                0.4793266         0.729164
                                0.22675293        0.739266
                                0.10639652        0.030588
                                0.05000494        -0.566618
                                0.0234982         -0.237417
[INPUT] 0    0    [12   /1   ]  41.19094709       -0.003183
                                21.94503151       0.098456
                                12.89081507       -0.758579
                                8.14876869        1.655936
                                3.94904809        -1.068093
                                1.91298055        -2.224521
                                1.10736282        2.10545
                                0.4793266         1.414254
                                0.22675293        -1.498426
                                0.10639652        -0.857745
                                0.05000494        0.64559
                                0.0234982         0.522893
[INPUT] 0    0    [12   /1   ]  41.19094709       -0.005669
                                21.94503151       -0.072371
                                12.89081507       1.009725
                                8.14876869        -2.847369
                                3.94904809        3.982552
                                1.91298055        -0.244007
                                1.10736282        -3.839613
                                0.4793266         2.775896
                                0.22675293        0.937737
                                0.10639652        -2.238269
                                0.05000494        0.096996
                                0.0234982         0.900173
[INPUT] 0    0    [1    /1   ]  0.0234982            1
[INPUT] 0    0    [1    /1   ]  0.01104221           1
[INPUT] 1    0    [12   /1   ]  60.1913049        0.000757
                                31.1792672        -0.006538
                                16.24276866       0.042902
                                8.80021485        -0.164602
                                5.33575038        0.099387
                                3.0325056         0.217723
                                1.63861968        0.443669
                                0.80258711        0.32785
                                0.40627833        0.098641
                                0.17382998        0.011768
                                0.07306386        -0.000703
                                0.03071005        0.000403
[INPUT] 1    0    [12   /1   ]  60.1913049        -0.000118
                                31.1792672        0.001208
                                16.24276866       -0.009122
                                8.80021485        0.038924
                                5.33575038        -0.027473
                                3.0325056         -0.058215
                                1.63861968        -0.124371
                                0.80258711        -0.107355
                                0.40627833        0.040741
                                0.17382998        0.350952
                                0.07306386        0.523294
                                0.03071005        0.234255
[INPUT] 1    0    [12   /1   ]  60.1913049        -0.000139
                                31.1792672        -0.00242
                                16.24276866       0.038793
                                8.80021485        -0.243459
                                5.33575038        0.194569
                                3.0325056         0.842216
                                1.63861968        0.066699
                                0.80258711        -0.892913
                                0.40627833        -0.392543
                                0.17382998        0.60286
                                0.07306386        0.393012
                                0.03071005        0.007885
[INPUT] 1    0    [12   /1   ]  60.1913049        -0.000398
                                31.1792672        -0.002431
                                16.24276866       0.06499
                                8.80021485        -0.561344
                                5.33575038        1.083365
                                3.0325056         0.923337
                                1.63861968        -1.661685
                                0.80258711        -0.597311
                                0.40627833        1.567186
                                0.17382998        -0.097993
                                0.07306386        -0.65828
                                0.03071005        -0.003976
[INPUT] 1    0    [12   /1   ]  60.1913049        -0.006402
                                31.1792672        0.03287
                                16.24276866       -0.058877
                                8.80021485        -0.69608
                                5.33575038        3.097068
                                3.0325056         -2.128644
                                1.63861968        -1.540559
                                0.80258711        2.934562
                                0.40627833        -1.1907
                                0.17382998        -0.89455
                                0.07306386        0.961804
                                0.03071005        -0.004278
[INPUT] 1    0    [1    /1   ]  0.03071005           1
[INPUT] 1    0    [1    /1   ]  0.01290798           1
[INPUT] 2    0    [10   /1   ]  52.56900844       0.000307
                                23.81654224       -0.007961
                                11.32693504       0.114253
                                4.99176622        0.164228
                                2.46839125        0.269996
                                1.15974738        0.320627
                                0.53124091        0.273188
                                0.24220121        0.161357
                                0.11248934        0.058244
                                0.05201371        0.009574
[INPUT] 2    0    [10   /1   ]  52.56900844       0.000337
                                23.81654224       0.004956
                                11.32693504       -0.107195
                                4.99176622        -0.206571
                                2.46839125        -0.366595
                                1.15974738        -0.092317
                                0.53124091        0.265958
                                0.24220121        0.408928
                                0.11248934        0.279128
                                0.05201371        0.068593
[INPUT] 2    0    [10   /1   ]  52.56900844       -0.002325
                                23.81654224       0.003859
                                11.32693504       0.104269
                                4.99176622        0.404616
                                2.46839125        0.341311
                                1.15974738        -0.607186
                                0.53124091        -0.484076
                                0.24220121        0.257285
                                0.11248934        0.465281
                                0.05201371        0.134253
[INPUT] 2    0    [10   /1   ]  52.56900844       -0.001087
                                23.81654224       -0.007049
                                11.32693504       0.271774
                                4.99176622        0.883987
                                2.46839125        -0.93145
                                1.15974738        -0.608336
                                0.53124091        0.93983
                                0.24220121        0.109829
                                0.11248934        -0.447095
                                0.05201371        -0.157185
[INPUT] 2    0    [1    /1   ]  0.05201371           1
[INPUT] 2    0    [1    /1   ]  0.02405051           1
[INPUT] 3    0    [1    /1   ]  4.240921             1
[INPUT] 3    0    [1    /1   ]  1.457367             1
[INPUT] 3    0    [1    /1   ]  0.500814             1
[INPUT] 3    0    [1    /1   ]  0.17210123           1
[INPUT] 4    0    [1    /1   ]  4.129721             1
[INPUT] 4    0    [1    /1   ]  1.439666             1
[INPUT] 4    0    [1    /1   ]  0.50188333           1
[INPUT] 5    0    [1    /1   ]  3.445174             1
[INPUT] 5    0    [1    /1   ]  1.20102538           1
nuclear repulsion = 0
number of shells = 29
number of NR pGTOs = 535
number of NR cGTOs = 135
basis = {'Mn': [[0, [41.19094709, 0.0124], [21.94503151, -0.141461], [12.89081507, 0.669584], [8.14876869, -1.015431], [3.94904809, 0.149151], [1.91298055, 0.350677], [1.10736282, 0.627006], [0.4793266, 0.235349], [0.22675293, -0.024214], [0.10639652, 0.017357], [0.05000494, -0.005272], [0.0234982, 0.002181]], [0, [41.19094709, -0.002036], [21.94503151, 0.02709], [12.89081507, -0.142056], [8.14876869, 0.229945], [3.94904809, -0.035538], [1.91298055, -0.085336], [1.10736282, -0.24355], [0.4793266, -0.201798], [0.22675293, 0.098761], [0.10639652, 0.439512], [0.05000494, 0.524416], [0.0234982, 0.13192]], [0, [41.19094709, -0.004856], [21.94503151, 0.092685], [12.89081507, -0.597148], [8.14876869, 1.137589], [3.94904809, -0.390492], [1.91298055, -1.331371], [1.10736282, 0.125193], [0.4793266, 0.729164], [0.22675293, 0.739266], [0.10639652, 0.030588], [0.05000494, -0.566618], [0.0234982, -0.237417]], [0, [41.19094709, -0.003183], [21.94503151, 0.098456], [12.89081507, -0.758579], [8.14876869, 1.655936], [3.94904809, -1.068093], [1.91298055, -2.224521], [1.10736282, 2.10545], [0.4793266, 1.414254], [0.22675293, -1.498426], [0.10639652, -0.857745], [0.05000494, 0.64559], [0.0234982, 0.522893]], [0, [41.19094709, -0.005669], [21.94503151, -0.072371], [12.89081507, 1.009725], [8.14876869, -2.847369], [3.94904809, 3.982552], [1.91298055, -0.244007], [1.10736282, -3.839613], [0.4793266, 2.775896], [0.22675293, 0.937737], [0.10639652, -2.238269], [0.05000494, 0.096996], [0.0234982, 0.900173]], [0, [0.0234982, 1.0]], [0, [0.01104221, 1.0]], [1, [60.1913049, 0.000757], [31.1792672, -0.006538], [16.24276866, 0.042902], [8.80021485, -0.164602], [5.33575038, 0.099387], [3.0325056, 0.217723], [1.63861968, 0.443669], [0.80258711, 0.32785], [0.40627833, 0.098641], [0.17382998, 0.011768], [0.07306386, -0.000703], [0.03071005, 0.000403]], [1, [60.1913049, -0.000118], [31.1792672, 0.001208], [16.24276866, -0.009122], [8.80021485, 0.038924], [5.33575038, -0.027473], [3.0325056, -0.058215], [1.63861968, -0.124371], [0.80258711, -0.107355], [0.40627833, 0.040741], [0.17382998, 0.350952], [0.07306386, 0.523294], [0.03071005, 0.234255]], [1, [60.1913049, -0.000139], [31.1792672, -0.00242], [16.24276866, 0.038793], [8.80021485, -0.243459], [5.33575038, 0.194569], [3.0325056, 0.842216], [1.63861968, 0.066699], [0.80258711, -0.892913], [0.40627833, -0.392543], [0.17382998, 0.60286], [0.07306386, 0.393012], [0.03071005, 0.007885]], [1, [60.1913049, -0.000398], [31.1792672, -0.002431], [16.24276866, 0.06499], [8.80021485, -0.561344], [5.33575038, 1.083365], [3.0325056, 0.923337], [1.63861968, -1.661685], [0.80258711, -0.597311], [0.40627833, 1.567186], [0.17382998, -0.097993], [0.07306386, -0.65828], [0.03071005, -0.003976]], [1, [60.1913049, -0.006402], [31.1792672, 0.03287], [16.24276866, -0.058877], [8.80021485, -0.69608], [5.33575038, 3.097068], [3.0325056, -2.128644], [1.63861968, -1.540559], [0.80258711, 2.934562], [0.40627833, -1.1907], [0.17382998, -0.89455], [0.07306386, 0.961804], [0.03071005, -0.004278]], [1, [0.03071005, 1.0]], [1, [0.01290798, 1.0]], [2, [52.56900844, 0.000307], [23.81654224, -0.007961], [11.32693504, 0.114253], [4.99176622, 0.164228], [2.46839125, 0.269996], [1.15974738, 0.320627], [0.53124091, 0.273188], [0.24220121, 0.161357], [0.11248934, 0.058244], [0.05201371, 0.009574]], [2, [52.56900844, 0.000337], [23.81654224, 0.004956], [11.32693504, -0.107195], [4.99176622, -0.206571], [2.46839125, -0.366595], [1.15974738, -0.092317], [0.53124091, 0.265958], [0.24220121, 0.408928], [0.11248934, 0.279128], [0.05201371, 0.068593]], [2, [52.56900844, -0.002325], [23.81654224, 0.003859], [11.32693504, 0.104269], [4.99176622, 0.404616], [2.46839125, 0.341311], [1.15974738, -0.607186], [0.53124091, -0.484076], [0.24220121, 0.257285], [0.11248934, 0.465281], [0.05201371, 0.134253]], [2, [52.56900844, -0.001087], [23.81654224, -0.007049], [11.32693504, 0.271774], [4.99176622, 0.883987], [2.46839125, -0.93145], [1.15974738, -0.608336], [0.53124091, 0.93983], [0.24220121, 0.109829], [0.11248934, -0.447095], [0.05201371, -0.157185]], [2, [0.05201371, 1.0]], [2, [0.02405051, 1.0]], [3, [4.240921, 1.0]], [3, [1.457367, 1.0]], [3, [0.500814, 1.0]], [3, [0.17210123, 1.0]], [4, [4.129721, 1.0]], [4, [1.439666, 1.0]], [4, [0.50188333, 1.0]], [5, [3.445174, 1.0]], [5, [1.20102538, 1.0]]]}
ecp = {'Mn': [10, [[-1, [[], [[18.43432244, 15.0]], [[12.74175213, 31301.56494509], [11.67410914, -4576.3546318], [12.90376156, -26766.73507377], [4.97171871, -4.09339906]], [[8.79264819, 276.51483655]]]], [0, [[], [], [[13.56187871, 2771.78238977], [9.44812535, 12553.69429672], [10.76503846, 1886.79316638], [11.65345594, -9260.55332402], [8.48073002, -8943.95003535], [6.96707028, 1041.73211249]], []]], [1, [[], [], [[12.71342918, -23181.32761179], [18.03174513, 111577.22220216], [16.6827906, -42399.84416473], [13.18867124, 16025.79106608], [18.42861128, -76264.60573764], [12.90928974, 14270.47832347]], []]], [2, [[], [], [[8.13384228, -382.83904013], [14.28699222, 5676.99013005], [11.14406629, 35338.03440844], [11.37674978, -38881.44458388], [18.25818233, 3550.6602642], [17.73146307, -5317.47975296]], []]]]]}
CPU time:         3.49


******** <class 'pyscf.scf.rohf.ROHF'> flags ********
method = ROHF
initial guess = minao
damping factor = 0
level shift factor = 1000.0
DIIS = <class 'pyscf.scf.diis.CDIIS'>
DIIS start cycle = 1
DIIS space = 8
SCF tol = 1e-09
SCF gradient tol = None
max. SCF cycles = 50
direct_scf = True
direct_scf_tol = 1e-13
chkfile to save SCF result = /rc_scratch/bamu3429/tmpYM6zlp
max_memory 4000 MB (current use 180 MB)
num. doubly occ = 5  num. singly occ = 5
Set gradient conv threshold to 3.16228e-05
init E= -103.517741376647
  HOMO = 499.866062037026  LUMO = 1000.01930111315
cycle= 1 E= -103.517741376647  delta_E= -8.53e-14  |g|= 1.01e-05  |ddm|= 3.74e-08
  HOMO = -0.133937969187404  LUMO = 0.0193011131480561
Extra cycle  E= -103.517741376658  delta_E= -1.08e-11  |g|= 3.98e-06  |ddm|= 2.19e-05
converged SCF energy = -103.517741376658
**** MO energy ****
                Roothaan           | alpha              | beta
MO #1   energy= -4.01352512798712  | -4.23162362713741  | -3.79542662883683  occ= 2
MO #2   energy= -2.52055630056203  | -2.78547961868767  | -2.2556329824364   occ= 2
MO #3   energy= -2.52055629847843  | -2.78547962090146  | -2.2556329760554   occ= 2
MO #4   energy= -2.5205562887173   | -2.78547963041841  | -2.25563294701619  occ= 2
MO #5   energy= -0.250573925066269 | -0.267991282564205 | -0.233156567567687 occ= 2
MO #6   energy= -0.133937982958587 | -0.629735302966503 | 0.361858820075621  occ= 1
MO #7   energy= -0.133937982671172 | -0.629735304193123 | 0.361858820719272  occ= 1
MO #8   energy= -0.1339379735979   | -0.629735308371985 | 0.361858835938188  occ= 1
MO #9   energy= -0.133937971665555 | -0.629735308498302 | 0.361858839323266  occ= 1
MO #10  energy= -0.133937969187404 | -0.629735309854216 | 0.361858843442459  occ= 1
MO #11  energy= 0.0193011131480561 | 0.0179593072856201 | 0.0206429190104866 occ= 0
MO #12  energy= 0.0193011134950034 | 0.017959307953322  | 0.0206429190366774 occ= 0
MO #13  energy= 0.0193011150143222 | 0.0179593109623121 | 0.0206429190663311 occ= 0
MO #14  energy= 0.023249811258216  | 0.0225686599940218 | 0.023930962522421  occ= 0
MO #15  energy= 0.0636412619601362 | 0.0599191000475918 | 0.0673634238726872 occ= 0
MO #16  energy= 0.0636412619669362 | 0.0599190957267448 | 0.0673634282071213 occ= 0
MO #17  energy= 0.0636412620814784 | 0.0599190948841721 | 0.0673634292787759 occ= 0
MO #18  energy= 0.0725688071589992 | 0.0723457668670375 | 0.0727918457206715 occ= 0
MO #19  energy= 0.0725688072061376 | 0.0723457668984688 | 0.0727918456808033 occ= 0
MO #20  energy= 0.0725688102585376 | 0.0723457700278483 | 0.0727918487644669 occ= 0
MO #21  energy= 0.0725688109274251 | 0.072345770704872  | 0.0727918494071289 occ= 0
MO #22  energy= 0.0725688117544396 | 0.0723457715550405 | 0.0727918502513368 occ= 0
MO #23  energy= 0.186164859781758  | 0.179603683876498  | 0.192726035687013  occ= 0
MO #24  energy= 0.221182667752389  | 0.217199788328506  | 0.225165598468385  occ= 0
MO #25  energy= 0.221182667793306  | 0.217199788370926  | 0.225165598447017  occ= 0
MO #26  energy= 0.221182674690782  | 0.217199796242808  | 0.22516560544593   occ= 0
MO #27  energy= 0.22118267628882   | 0.21719979797166   | 0.225165606897832  occ= 0
MO #28  energy= 0.221182678134265  | 0.217199800102941  | 0.22516560881557   occ= 0
MO #29  energy= 0.244849136407974  | 0.233229440120692  | 0.256468832695258  occ= 0
MO #30  energy= 0.244849137325861  | 0.23322944348614   | 0.25646883116558   occ= 0
MO #31  energy= 0.244849142310014  | 0.233229458603178  | 0.25646882601685   occ= 0
MO #32  energy= 0.614723638154889  | 0.599237422883683  | 0.630209853426076  occ= 0
MO #33  energy= 0.648349397482152  | 0.642943026541197  | 0.653755768423114  occ= 0
MO #34  energy= 0.648349397490087  | 0.642943026552002  | 0.653755768428175  occ= 0
MO #35  energy= 0.648349411664865  | 0.642943042997409  | 0.653755780332325  occ= 0
MO #36  energy= 0.64834941207129   | 0.642943043490883  | 0.653755780651696  occ= 0
MO #37  energy= 0.648349419139835  | 0.642943051683805  | 0.653755786595864  occ= 0
MO #38  energy= 0.648349422538408  | 0.642943055628726  | 0.653755789448094  occ= 0
MO #39  energy= 0.648349424094815  | 0.642943057434346  | 0.65375579075528   occ= 0
MO #40  energy= 0.762158115540059  | 0.724911097781302  | 0.799405557223343  occ= 0
MO #41  energy= 0.762158116147391  | 0.724911097916336  | 0.799405557309694  occ= 0
MO #42  energy= 0.762158122640032  | 0.724911110888432  | 0.799405562567571  occ= 0
MO #43  energy= 0.762158124452931  | 0.724911113861728  | 0.799405563605067  occ= 0
MO #44  energy= 0.762158126301391  | 0.7249111173809    | 0.799405565077766  occ= 0
MO #45  energy= 1.25175046858102   | 1.2111646993248    | 1.29233623783724   occ= 0
MO #46  energy= 1.25175047253937   | 1.21116470619207   | 1.29233623888666   occ= 0
MO #47  energy= 1.25175049055803   | 1.21116473506485   | 1.2923362460512    occ= 0
MO #48  energy= 1.94326716515296   | 1.89476422064347   | 1.99177010966245   occ= 0
MO #49  energy= 1.94326716516336   | 1.89476422066404   | 1.99177010966268   occ= 0
MO #50  energy= 1.94326718140928   | 1.89476424369561   | 1.99177011912296   occ= 0
MO #51  energy= 1.94326718188164   | 1.89476424448157   | 1.99177011928171   occ= 0
MO #52  energy= 1.9432671900045    | 1.89476425587842   | 1.99177012413056   occ= 0
MO #53  energy= 1.94326719381223   | 1.89476426155939   | 1.99177012606507   occ= 0
MO #54  energy= 1.94326719561973   | 1.89476426404621   | 1.99177012719325   occ= 0
MO #55  energy= 2.34025407724746   | 2.32524306775187   | 2.35526508674306   occ= 0
MO #56  energy= 2.34025407724787   | 2.32524306775256   | 2.35526508674318   occ= 0
MO #57  energy= 2.3402540932823    | 2.32524308740029   | 2.35526509916431   occ= 0
MO #58  energy= 2.34025409332115   | 2.32524308745666   | 2.35526509918563   occ= 0
MO #59  energy= 2.34025410419588   | 2.32524310073379   | 2.35526510765798   occ= 0
MO #60  energy= 2.34025410507049   | 2.32524310188181   | 2.35526510825917   occ= 0
MO #61  energy= 2.34025410992243   | 2.32524310776082   | 2.35526511208403   occ= 0
MO #62  energy= 2.34025411432811   | 2.32524311327356   | 2.35526511538266   occ= 0
MO #63  energy= 2.3402541151485    | 2.3252431142553    | 2.35526511604169   occ= 0
MO #64  energy= 2.43058437206076   | 2.38370699289657   | 2.47746175122491   occ= 0
MO #65  energy= 3.0313549105193    | 2.94253095692862   | 3.12017890765889   occ= 0
MO #66  energy= 3.03135491090269   | 2.94253095732014   | 3.12017890772463   occ= 0
MO #67  energy= 3.03135491687309   | 2.94253096416986   | 3.12017891478036   occ= 0
MO #68  energy= 3.03135491842066   | 2.94253096602793   | 3.12017891627033   occ= 0
MO #69  energy= 3.03135492009587   | 2.94253096791545   | 3.12017891821278   occ= 0
MO #70  energy= 4.74747974077871   | 4.68521965490265   | 4.80973982665477   occ= 0
MO #71  energy= 4.74747974396946   | 4.68521965720772   | 4.80973983073118   occ= 0
MO #72  energy= 4.74747975886532   | 4.68521966811527   | 4.80973984961535   occ= 0
MO #73  energy= 5.14485872889229   | 5.0321011812292    | 5.25761627655538   occ= 0
MO #74  energy= 5.14485872889314   | 5.03210118122433   | 5.25761627656195   occ= 0
MO #75  energy= 5.14485873693244   | 5.03210118790813   | 5.25761628595674   occ= 0
MO #76  energy= 5.14485873711854   | 5.03210118801027   | 5.25761628622682   occ= 0
MO #77  energy= 5.14485874113347   | 5.03210119132774   | 5.2576162909392    occ= 0
MO #78  energy= 5.14485874309493   | 5.03210119310048   | 5.25761629308939   occ= 0
MO #79  energy= 5.14485874396779   | 5.03210119378739   | 5.25761629414817   occ= 0
MO #80  energy= 6.77202355451077   | 6.74489570167429   | 6.79915140734724   occ= 0
MO #81  energy= 6.77202355451077   | 6.7448957016743    | 6.79915140734724   occ= 0
MO #82  energy= 6.77202356526411   | 6.74489571508441   | 6.7991514154438    occ= 0
MO #83  energy= 6.77202356526561   | 6.74489571508701   | 6.79915141544421   occ= 0
MO #84  energy= 6.77202357355108   | 6.74489572540177   | 6.79915142170039   occ= 0
MO #85  energy= 6.77202357361899   | 6.74489572550499   | 6.79915142173297   occ= 0
MO #86  energy= 6.77202357897213   | 6.74489573210128   | 6.79915142584297   occ= 0
MO #87  energy= 6.7720235798671    | 6.74489573333472   | 6.79915142639947   occ= 0
MO #88  energy= 6.7720235819805    | 6.74489573588207   | 6.79915142807893   occ= 0
MO #89  energy= 6.77202358522636   | 6.74489574011807   | 6.79915143033465   occ= 0
MO #90  energy= 6.77202358549916   | 6.74489574043365   | 6.79915143056469   occ= 0
MO #91  energy= 6.99843169917801   | 6.94096939588825   | 7.05589400246777   occ= 0
MO #92  energy= 6.99843169917819   | 6.94096939588853   | 7.05589400246783   occ= 0
MO #93  energy= 6.99843170802556   | 6.94096940671476   | 7.05589400933635   occ= 0
MO #94  energy= 6.99843170804524   | 6.94096940674365   | 7.05589400934683   occ= 0
MO #95  energy= 6.99843171406401   | 6.94096941406426   | 7.05589401406379   occ= 0
MO #96  energy= 6.99843171451773   | 6.94096941468879   | 7.05589401434666   occ= 0
MO #97  energy= 6.99843171722936   | 6.94096941792652   | 7.05589401653218   occ= 0
MO #98  energy= 6.99843171957363   | 6.94096942098714   | 7.05589401816011   occ= 0
MO #99  energy= 6.99843172004344   | 6.94096942152306   | 7.05589401856381   occ= 0
MO #100 energy= 9.17063143294363   | 9.09276527522254   | 9.24849759192448   occ= 0
MO #101 energy= 9.17063143299429   | 9.09276527554035   | 9.24849759170405   occ= 0
MO #102 energy= 9.17063143718425   | 9.0927652746927    | 9.24849760095132   occ= 0
MO #103 energy= 9.17063143838873   | 9.09276527483503   | 9.2484976032195    occ= 0
MO #104 energy= 9.17063143947213   | 9.09276527462783   | 9.24849760559825   occ= 0
MO #105 energy= 9.54785731761545   | 9.47966270182908   | 9.61605193340182   occ= 0
MO #106 energy= 13.9293921342963   | 13.8246406715491   | 14.0341435970435   occ= 0
MO #107 energy= 13.9293921342966   | 13.8246406715729   | 14.0341435970203   occ= 0
MO #108 energy= 13.9293921356203   | 13.8246406655983   | 14.0341436056423   occ= 0
MO #109 energy= 13.9293921357214   | 13.8246406654342   | 14.0341436060087   occ= 0
MO #110 energy= 13.9293921362935   | 13.8246406625302   | 14.0341436100568   occ= 0
MO #111 energy= 13.9293921369554   | 13.8246406613513   | 14.0341436125596   occ= 0
MO #112 energy= 13.9293921370363   | 13.8246406607614   | 14.0341436133112   occ= 0
MO #113 energy= 14.2290401450556   | 14.1644423167366   | 14.2936379733746   occ= 0
MO #114 energy= 14.2290401465495   | 14.1644423158517   | 14.2936379772472   occ= 0
MO #115 energy= 14.2290401521342   | 14.1644423118439   | 14.2936379924244   occ= 0
MO #116 energy= 19.1591953697487   | 19.0806752067095   | 19.2377155327878   occ= 0
MO #117 energy= 19.1591953697495   | 19.0806752067106   | 19.2377155327883   occ= 0
MO #118 energy= 19.1591953711486   | 19.0806752038824   | 19.2377155384148   occ= 0
MO #119 energy= 19.1591953711754   | 19.0806752039024   | 19.2377155384485   occ= 0
MO #120 energy= 19.1591953720298   | 19.0806752019514   | 19.2377155421083   occ= 0
MO #121 energy= 19.1591953722673   | 19.0806752018893   | 19.2377155426452   occ= 0
MO #122 energy= 19.1591953725691   | 19.0806752010246   | 19.2377155441135   occ= 0
MO #123 energy= 19.1591953732409   | 19.0806752004247   | 19.2377155460571   occ= 0
MO #124 energy= 19.1591953732736   | 19.0806752002943   | 19.2377155462529   occ= 0
MO #125 energy= 20.1831754490683   | 20.1276499167991   | 20.2387009813375   occ= 0
MO #126 energy= 20.1831754490684   | 20.1276499167991   | 20.2387009813376   occ= 0
MO #127 energy= 20.1831754513876   | 20.1276499175838   | 20.2387009851915   occ= 0
MO #128 energy= 20.1831754513895   | 20.1276499175846   | 20.2387009851943   occ= 0
MO #129 energy= 20.1831754531522   | 20.1276499181764   | 20.238700988128    occ= 0
MO #130 energy= 20.1831754531938   | 20.127649918196    | 20.2387009881916   occ= 0
MO #131 energy= 20.1831754542655   | 20.1276499185384   | 20.2387009899926   occ= 0
MO #132 energy= 20.1831754545812   | 20.127649918677    | 20.2387009904853   occ= 0
MO #133 energy= 20.1831754549585   | 20.127649918783    | 20.238700991134    occ= 0
MO #134 energy= 20.1831754558042   | 20.1276499191348   | 20.2387009924736   occ= 0
MO #135 energy= 20.183175455846    | 20.1276499191431   | 20.238700992549    occ= 0
 ** Mulliken pop on meta-lowdin orthogonal AOs  **
 ** Mulliken pop  **
pop of  0Mn 3s        1.99998
pop of  0Mn 4s        1.99917
pop of  0Mn 5s        0.00044
pop of  0Mn 6s        0.00019
pop of  0Mn 7s        0.00001
pop of  0Mn 8s        0.00011
pop of  0Mn 9s        0.00010
pop of  0Mn 3px       1.99993
pop of  0Mn 3py       1.99993
pop of  0Mn 3pz       1.99993
pop of  0Mn 4px       0.00005
pop of  0Mn 4py       0.00005
pop of  0Mn 4pz       0.00005
pop of  0Mn 5px       0.00001
pop of  0Mn 5py       0.00001
pop of  0Mn 5pz       0.00001
pop of  0Mn 6px       0.00001
pop of  0Mn 6py       0.00001
pop of  0Mn 6pz       0.00001
pop of  0Mn 7px       0.00000
pop of  0Mn 7py       0.00000
pop of  0Mn 7pz       0.00000
pop of  0Mn 8px       0.00000
pop of  0Mn 8py       0.00000
pop of  0Mn 8pz       0.00000
pop of  0Mn 9px       0.00000
pop of  0Mn 9py       0.00000
pop of  0Mn 9pz       0.00000
pop of  0Mn 3dxy      0.99588
pop of  0Mn 3dyz      0.99588
pop of  0Mn 3dz^2     0.99588
pop of  0Mn 3dxz      0.99588
pop of  0Mn 3dx2-y2    0.99588
pop of  0Mn 4dxy      0.00329
pop of  0Mn 4dyz      0.00329
pop of  0Mn 4dz^2     0.00329
pop of  0Mn 4dxz      0.00329
pop of  0Mn 4dx2-y2    0.00329
pop of  0Mn 5dxy      0.00025
pop of  0Mn 5dyz      0.00025
pop of  0Mn 5dz^2     0.00025
pop of  0Mn 5dxz      0.00025
pop of  0Mn 5dx2-y2    0.00025
pop of  0Mn 6dxy      0.00000
pop of  0Mn 6dyz      0.00000
pop of  0Mn 6dz^2     0.00000
pop of  0Mn 6dxz      0.00000
pop of  0Mn 6dx2-y2    0.00000
pop of  0Mn 7dxy      0.00053
pop of  0Mn 7dyz      0.00053
pop of  0Mn 7dz^2     0.00053
pop of  0Mn 7dxz      0.00053
pop of  0Mn 7dx2-y2    0.00053
pop of  0Mn 8dxy      0.00004
pop of  0Mn 8dyz      0.00004
pop of  0Mn 8dz^2     0.00004
pop of  0Mn 8dxz      0.00004
pop of  0Mn 8dx2-y2    0.00004
pop of  0Mn 4fy^3     0.00000
pop of  0Mn 4fxyz     0.00000
pop of  0Mn 4fyz^2    0.00000
pop of  0Mn 4fz^3     0.00000
pop of  0Mn 4fxz^2    0.00000
pop of  0Mn 4fzx^2    0.00000
pop of  0Mn 4fx^3     0.00000
pop of  0Mn 5fy^3     0.00000
pop of  0Mn 5fxyz     0.00000
pop of  0Mn 5fyz^2    0.00000
pop of  0Mn 5fz^3     0.00000
pop of  0Mn 5fxz^2    0.00000
pop of  0Mn 5fzx^2    0.00000
pop of  0Mn 5fx^3     0.00000
pop of  0Mn 6fy^3     0.00000
pop of  0Mn 6fxyz     0.00000
pop of  0Mn 6fyz^2    0.00000
pop of  0Mn 6fz^3     0.00000
pop of  0Mn 6fxz^2    0.00000
pop of  0Mn 6fzx^2    0.00000
pop of  0Mn 6fx^3     0.00000
pop of  0Mn 7fy^3     0.00000
pop of  0Mn 7fxyz     0.00000
pop of  0Mn 7fyz^2    0.00000
pop of  0Mn 7fz^3     0.00000
pop of  0Mn 7fxz^2    0.00000
pop of  0Mn 7fzx^2    0.00000
pop of  0Mn 7fx^3     0.00000
pop of  0Mn 5g-4      0.00000
pop of  0Mn 5g-3      0.00000
pop of  0Mn 5g-2      0.00000
pop of  0Mn 5g-1      0.00000
pop of  0Mn 5g 0      0.00000
pop of  0Mn 5g 1      0.00000
pop of  0Mn 5g 2      0.00000
pop of  0Mn 5g 3      0.00000
pop of  0Mn 5g 4      0.00000
pop of  0Mn 6g-4      0.00000
pop of  0Mn 6g-3      0.00000
pop of  0Mn 6g-2      0.00000
pop of  0Mn 6g-1      0.00000
pop of  0Mn 6g 0      0.00000
pop of  0Mn 6g 1      0.00000
pop of  0Mn 6g 2      0.00000
pop of  0Mn 6g 3      0.00000
pop of  0Mn 6g 4      0.00000
pop of  0Mn 7g-4      0.00000
pop of  0Mn 7g-3      0.00000
pop of  0Mn 7g-2      0.00000
pop of  0Mn 7g-1      0.00000
pop of  0Mn 7g 0      0.00000
pop of  0Mn 7g 1      0.00000
pop of  0Mn 7g 2      0.00000
pop of  0Mn 7g 3      0.00000
pop of  0Mn 7g 4      0.00000
pop of  0Mn 6h-5      0.00000
pop of  0Mn 6h-4      0.00000
pop of  0Mn 6h-3      0.00000
pop of  0Mn 6h-2      0.00000
pop of  0Mn 6h-1      0.00000
pop of  0Mn 6h 0      0.00000
pop of  0Mn 6h 1      0.00000
pop of  0Mn 6h 2      0.00000
pop of  0Mn 6h 3      0.00000
pop of  0Mn 6h 4      0.00000
pop of  0Mn 6h 5      0.00000
pop of  0Mn 7h-5      0.00000
pop of  0Mn 7h-4      0.00000
pop of  0Mn 7h-3      0.00000
pop of  0Mn 7h-2      0.00000
pop of  0Mn 7h-1      0.00000
pop of  0Mn 7h 0      0.00000
pop of  0Mn 7h 1      0.00000
pop of  0Mn 7h 2      0.00000
pop of  0Mn 7h 3      0.00000
pop of  0Mn 7h 4      0.00000
pop of  0Mn 7h 5      0.00000
 ** Mulliken atomic charges  **
charge of  0Mn =     -0.00000

******** <class 'pyscf.mcscf.mc1step.CASSCF'> flags ********
CAS (6e+1e, 6o), ncore = 4, nvir = 125
max_cycle_macro = 50
max_cycle_micro = 4
conv_tol = 1e-07
conv_tol_grad = None
orbital rotation max_stepsize = 0.02
augmented hessian ah_max_cycle = 30
augmented hessian ah_conv_tol = 1e-12
augmented hessian ah_linear dependence = 1e-14
augmented hessian ah_level shift = 0
augmented hessian ah_start_tol = 2.5
augmented hessian ah_start_cycle = 3
augmented hessian ah_grad_trust_region = 3
kf_trust_region = 3
kf_interval = 4
ci_response_space = 4
ci_grad_trust_region = 3
with_dep4 0
natorb = False
canonicalization = True
sorting_mo_energy = False
chkfile = ./scratch/10670/tmpfU_ZXb
max_memory 4000 MB (current use 810 MB)
internal_rotation = False

******** SHCI flags ********
executable             = /home/bamu3429/softwares/dice/Dice
mpiprefix              = srun -n20
scratchDirectory       = ./scratch/10670
integralFile           = ./FCIDUMP
configFile             = ./input.dat
outputFile             = ./output.dat
maxIter                = 6
sweep_iter             = []
sweep_epsilon          = []
nPTiter                = 0
Stochastic             = True
fullrestart            = False
restart                = False
num_thrds              = 12
memory                 = None

CASCI E = -103.517741376658  S^2 = 8.7500000
Set conv_tol_grad to 0.000316228
macro iter 1 (1 JK  1 micro), CASSCF E = -103.517741376658  dE = 0  S^2 = 8.7500000
               |grad[o]|=3.98e-06  |grad[c]|= None  |ddm|=    0
1-step CASSCF converged in 1 macro (1 JK 1 micro) steps
CASSCF canonicalization
CASSCF energy = -103.517741376658


--------------------------------------------------
                 ICMPSPT CALCULATION              
--------------------------------------------------

Perturbation type: MRLCC
With fully internally contracted scheme
With third order correction

Preparing necessary RDMs
......production of RDMs took       2.23 sec
Reading binary 4RDM from DICE
......reading the RDM took          1.03 sec

(GOOD) Trace 4RDM:    840.0 =    7*    6*    5*    4
(GOOD) Trace 3RDM:    210.0 =    7*    6*    5
(GOOD) Trace 2RDM:     42.0 =    7*    6
(GOOD) Trace 1RDM:      7.0 =    7

Producing the integrals
......production of INT took     246.62 sec

Energy_core =  -88.44897934
Energy      = -103.51774138

WARNING: Have to use natural orbitals from CAASCF
         offdiagonal elements:    0.82422746

Basic ingredients written to int/
......savings of INGREDIENTS took      67.82 sec

Second-order:
perturber CCVV --        -0.114190214
perturber CCAV --        -0.047255418
perturber ACVV --        -0.184449335
perturber CCAA --        -0.028340000
perturber AAVV --        -0.145637004
perturber CAAV --        -0.121449288
perturber AAAV --        -0.004512045
perturber AAAC --        -0.000000000
Total:                   -0.645833305

Third-order:              0.002704492

Total PT       --        -0.643128813

