 &FCI NORB=6 ,NELEC=8 ,MS2=4,
  ORBSYM=1,1,1,1,1,1,
  ISYM=1,
 &END
  8.893380753943e-01    1  1  1  1
  3.744090420486e-04    2  1  1  1
  7.691631654934e-03    2  1  2  1
  3.593865497844e-01    2  2  1  1
  7.123325686399e-06    2  2  2  1
  2.808973374191e-01    2  2  2  2
 -8.303694015976e-05    3  1  1  1
 -1.402256641262e-03    3  1  2  1
 -5.075100942088e-06    3  1  2  2
  4.039855443712e-02    3  1  3  1
  1.963749914973e-03    3  2  1  1
 -2.616558892778e-06    3  2  2  1
  1.123672974807e-03    3  2  2  2
 -7.603334468141e-05    3  2  3  1
  7.171555167085e-03    3  2  3  2
  8.274353741427e-01    3  3  1  1
  8.178762073820e-05    3  3  2  1
  3.614629882550e-01    3  3  2  2
  1.282876890409e-05    3  3  3  1
  4.759052697957e-03    3  3  3  2
  9.288453169652e-01    3  3  3  3
 -1.061226278359e-09    4  1  1  1
 -1.520378262094e-08    4  1  2  1
  3.396504383939e-10    4  1  2  2
 -1.027720639246e-09    4  1  3  1
  4.902357132653e-09    4  1  3  2
 -1.415471548394e-09    4  1  3  3
  3.561149960130e-02    4  1  4  1
 -2.589468694640e-07    4  2  1  1
  7.772257854622e-10    4  2  2  1
 -4.846238081637e-08    4  2  2  2
 -9.747635250204e-09    4  2  3  1
 -1.875664590386e-09    4  2  3  2
 -2.809756909888e-07    4  2  3  3
 -1.064766775667e-03    4  2  4  1
  7.127810744710e-03    4  2  4  2
  3.090047438867e-09    4  3  1  1
  4.876310221446e-09    4  3  2  1
  6.001810982389e-10    4  3  2  2
 -3.692203766769e-11    4  3  3  1
 -9.801687908457e-09    4  3  3  2
  5.612541809200e-09    4  3  3  3
 -8.955789224535e-03    4  3  4  1
  5.235355896899e-04    4  3  4  2
  2.490086074765e-02    4  3  4  3
  8.362074437811e-01    4  4  1  1
 -8.880684637214e-04    4  4  2  1
  3.612700349090e-01    4  4  2  2
  1.783111016174e-02    4  4  3  1
  4.117837788884e-03    4  4  3  2
  8.780303092626e-01    4  4  3  3
 -3.930520365893e-09    4  4  4  1
 -3.000478837416e-07    4  4  4  2
  5.979271943779e-09    4  4  4  3
  9.267373546835e-01    4  4  4  4
 -2.030358269685e-09    5  1  1  1
  1.862067712786e-08    5  1  2  1
  2.036690997614e-10    5  1  2  2
  9.675329536353e-10    5  1  3  1
  6.667867836757e-09    5  1  3  2
 -4.799877740409e-10    5  1  3  3
  1.255221804565e-09    5  1  4  1
 -4.063731673150e-09    5  1  4  2
 -2.332716642803e-08    5  1  4  3
 -8.094851091714e-10    5  1  4  4
  3.469812268678e-02    5  1  5  1
  3.265119179610e-07    5  2  1  1
  1.102558895366e-09    5  2  2  1
  5.966988292398e-08    5  2  2  2
 -1.296825386798e-08    5  2  3  1
  2.323776100998e-09    5  2  3  2
  3.513100420221e-07    5  2  3  3
 -1.474446628573e-09    5  2  4  1
 -9.986249401184e-11    5  2  4  2
 -7.758638690367e-10    5  2  4  3
  3.366792340259e-07    5  2  4  4
  1.070017056871e-03    5  2  5  1
  7.127815940418e-03    5  2  5  2
 -3.304472583968e-09    5  3  1  1
  6.636532929724e-09    5  3  2  1
 -9.103068816032e-10    5  3  2  2
 -5.744789311299e-10    5  3  3  1
  1.305645607268e-08    5  3  3  2
 -7.642122171243e-09    5  3  3  3
 -2.507831897198e-08    5  3  4  1
 -8.489449208546e-10    5  3  4  2
 -2.595890530245e-10    5  3  4  3
 -7.470718804838e-09    5  3  4  4
  9.565643852649e-03    5  3  5  1
  5.856652045362e-04    5  3  5  2
  2.592630818374e-02    5  3  5  3
 -1.289807711250e-09    5  4  1  1
 -2.825926864910e-09    5  4  2  1
  2.409320107093e-10    5  4  2  2
  4.810509848416e-08    5  4  3  1
  1.499301176601e-09    5  4  3  2
  2.202666297381e-09    5  4  3  3
  1.267129436898e-09    5  4  4  1
  2.019444749020e-08    5  4  4  2
 -3.427070835131e-10    5  4  4  3
  1.680963874786e-09    5  4  4  4
  8.671865660013e-10    5  4  5  1
 -1.597697374465e-08    5  4  5  2
  6.423301510018e-10    5  4  5  3
  3.611300640089e-02    5  4  5  4
  8.381376840796e-01    5  5  1  1
  1.243283399583e-03    5  5  2  1
  3.612359299986e-01    5  5  2  2
 -1.897863712138e-02    5  5  3  1
  4.128413313856e-03    5  5  3  2
  8.757978830609e-01    5  5  3  3
 -3.496395959936e-10    5  5  4  1
 -2.681061338714e-07    5  5  4  2
  4.821182315366e-09    5  5  4  3
  8.543164334042e-01    5  5  4  4
 -5.583443860010e-09    5  5  5  1
  3.764991508843e-07    5  5  5  2
 -8.332941039189e-09    5  5  5  3
  1.680101770375e-09    5  5  5  4
  9.263476359999e-01    5  5  5  5
  6.170843656240e-11    6  1  1  1
 -8.096149919027e-10    6  1  2  1
  1.649238049885e-12    6  1  2  2
 -1.379557271096e-09    6  1  3  1
  5.558712324397e-11    6  1  3  2
 -5.598068554310e-11    6  1  3  3
 -7.613966601059e-10    6  1  4  1
  3.618106064457e-10    6  1  4  2
  3.431516041285e-10    6  1  4  3
 -2.524348623319e-09    6  1  4  4
  3.333638614029e-11    6  1  5  1
 -3.235410798095e-10    6  1  5  2
 -3.558017396347e-11    6  1  5  3
  5.303319573421e-04    6  1  5  4
  2.645626452643e-09    6  1  5  5
  1.930963864728e-02    6  1  6  1
 -3.905467859935e-08    6  2  1  1
 -2.046413113504e-11    6  2  2  1
 -5.850590782288e-09    6  2  2  2
 -8.354238410538e-11    6  2  3  1
 -1.958211247257e-10    6  2  3  2
 -3.724091469002e-08    6  2  3  3
 -1.116303862764e-08    6  2  4  1
  8.501053226636e-10    6  2  4  2
  6.157757448745e-09    6  2  4  3
 -3.976236383886e-08    6  2  4  4
 -8.636576486248e-09    6  2  5  1
 -7.163174368709e-10    6  2  5  2
 -5.379820443890e-09    6  2  5  3
  6.885231131130e-04    6  2  5  4
 -3.615526380634e-08    6  2  5  5
  3.569283197737e-05    6  2  6  1
  7.045425923924e-03    6  2  6  2
  2.355809672403e-09    6  3  1  1
  6.006928837423e-11    6  3  2  1
 -4.437392409049e-11    6  3  2  2
  1.237726141260e-11    6  3  3  1
 -2.866486646627e-09    6  3  3  2
  5.127117885171e-10    6  3  3  3
 -6.659188954480e-10    6  3  4  1
 -1.286692572825e-08    6  3  4  2
 -3.409425180714e-10    6  3  4  3
  4.778046223297e-08    6  3  4  4
  1.547412285850e-10    6  3  5  1
  1.020749301817e-08    6  3  5  2
  1.521935298575e-10    6  3  5  3
 -1.861939188986e-02    6  3  5  4
 -4.937605265351e-08    6  3  5  5
 -6.101151674684e-04    6  3  6  1
 -7.543720523880e-04    6  3  6  2
  4.126812711680e-02    6  3  6  3
 -4.538480145841e-09    6  4  1  1
  1.077155190712e-08    6  4  2  1
 -5.609002416212e-10    6  4  2  2
  3.301883755386e-10    6  4  3  1
  6.742363409234e-09    6  4  3  2
 -5.667915680940e-09    6  4  3  3
  8.862276147640e-10    6  4  4  1
 -4.685615855284e-09    6  4  4  2
 -2.374391430748e-08    6  4  4  3
 -6.338642191761e-09    6  4  4  4
  1.571680136387e-02    6  4  5  1
  9.011293032711e-04    6  4  5  2
  9.816727870034e-03    6  4  5  3
  1.714136230997e-09    6  4  5  4
 -9.277309240438e-09    6  4  5  5
 -6.697208677502e-11    6  4  6  1
 -1.587996914040e-08    6  4  6  2
 -6.487198480485e-10    6  4  6  3
  3.595310092449e-02    6  4  6  4
  3.321010713967e-09    6  5  1  1
  8.782080980389e-09    6  5  2  1
  8.880418618533e-11    6  5  2  2
 -1.177807461041e-10    6  5  3  1
 -4.888504825283e-09    6  5  3  2
  3.245068622240e-09    6  5  3  3
 -1.617387624310e-02    6  5  4  1
  8.782802942124e-04    6  5  4  2
  8.928895964863e-03    6  5  4  3
  4.662607513669e-09    6  5  4  4
 -9.215243648425e-10    6  5  5  1
 -4.121265768431e-11    6  5  5  2
  2.517840168617e-08    6  5  5  3
 -1.707260544392e-09    6  5  5  4
  3.539558481685e-09    6  5  5  5
  5.217140806149e-10    6  5  6  1
  2.002089252451e-08    6  5  6  2
  9.087346164912e-10    6  5  6  3
 -5.732262618023e-10    6  5  6  4
  3.594370995177e-02    6  5  6  5
  8.656944745000e-01    6  6  1  1
  2.622791228557e-04    6  6  2  1
  3.605683380998e-01    6  6  2  2
  1.134964220875e-03    6  6  3  1
  2.454155451196e-03    6  6  3  2
  8.414138717653e-01    6  6  3  3
 -1.002559278034e-09    6  6  4  1
 -2.667579053594e-07    6  6  4  2
  3.369438325978e-09    6  6  4  3
  8.513880991316e-01    6  6  4  4
 -3.129656668717e-09    6  6  5  1
  3.348362301174e-07    6  6  5  2
 -4.514078631958e-09    6  6  5  3
  3.866469569634e-09    6  6  5  4
  8.512137044792e-01    6  6  5  5
  5.951800476759e-11    6  6  6  1
 -4.208161332861e-08    6  6  6  2
 -2.666443209743e-10    6  6  6  3
 -6.288672691845e-09    6  6  6  4
  3.512931273349e-09    6  6  6  5
  9.198817692090e-01    6  6  6  6
 -5.454030410051e+00    1  1  0  0
 -1.098427655822e-03    2  1  0  0
 -2.685571756520e+00    2  2  0  0
  8.611258466421e-05    3  1  0  0
 -2.190867037620e-02    3  2  0  0
 -5.542631745254e+00    3  3  0  0
  6.349312214326e-09    4  1  0  0
  1.542575534892e-06    4  2  0  0
 -2.405416977993e-08    4  3  0  0
 -5.538363980001e+00    4  4  0  0
  1.020204142576e-08    5  1  0  0
 -1.933171656703e-06    5  2  0  0
  3.241790471483e-08    5  3  0  0
 -7.485622061561e-09    5  4  0  0
 -5.537607207950e+00    5  5  0  0
 -1.741416084595e-10    6  1  0  0
  2.161282510749e-07    6  2  0  0
 -1.718102107738e-09    6  3  0  0
  2.981108527564e-08    6  4  0  0
 -1.669332389104e-08    6  5  0  0
 -5.522940187450e+00    6  6  0  0
   -101.625301205287   0  0  0  0
