 &FCI NORB=6 ,NELEC=4 ,MS2=4,
  ORBSYM=1,1,1,1,1,1,
  ISYM=1,
 &END
  6.899667536564e-01    1  1  1  1
  2.613953702780e-02    2  1  2  1
  6.304123578189e-01    2  2  1  1
  6.750909507859e-01    2  2  2  2
 -7.205728419664e-12    3  1  1  1
 -1.939778437170e-11    3  1  2  1
 -5.806656172856e-10    3  1  2  2
  2.613953565677e-02    3  1  3  1
 -3.078095760129e-11    3  2  1  1
 -3.003064670337e-10    3  2  2  1
 -5.924421543655e-08    3  2  2  2
 -3.506268537518e-11    3  2  3  1
  2.599904709304e-02    3  2  3  2
  6.304123075333e-01    3  3  1  1
 -6.489407760320e-11    3  3  2  1
  6.240597276729e-01    3  3  2  2
 -5.764814061574e-12    3  3  3  1
  5.922449410054e-08    3  3  3  2
  6.750908370492e-01    3  3  3  3
  5.189451978383e-11    4  1  1  1
  1.967578004811e-10    4  1  2  1
  1.613712108331e-06    4  1  2  2
  2.294494618608e-11    4  1  3  1
 -1.317083177333e-02    4  1  3  2
 -1.613687338601e-06    4  1  3  3
  2.902620371027e-02    4  1  4  1
  5.045268601044e-10    4  2  1  1
 -8.817510841505e-07    4  2  2  1
 -1.505378398913e-10    4  2  2  2
  7.196737612569e-03    4  2  3  1
 -3.441727035698e-12    4  2  3  2
 -8.395251021539e-11    4  2  3  3
 -5.835325048637e-12    4  2  4  1
  1.847075756116e-02    4  2  4  2
  5.590526503838e-11    4  3  1  1
  7.196667059636e-03    4  3  2  1
 -9.485751878095e-12    4  3  2  2
  8.817391478226e-07    4  3  3  1
 -2.336180963070e-11    4  3  3  2
 -1.861914331138e-11    4  3  3  3
 -5.678283371148e-11    4  3  4  1
  4.565948794409e-12    4  3  4  2
  1.847066792993e-02    4  3  4  3
  6.191717255266e-01    4  4  1  1
  1.428261611822e-11    4  4  2  1
  6.374558543203e-01    4  4  2  2
  1.297070167568e-10    4  4  3  1
 -1.759368201091e-11    4  4  3  2
  6.374559540883e-01    4  4  3  3
  6.181841157424e-12    4  4  4  1
 -2.207617969941e-11    4  4  4  2
 -3.913162889174e-12    4  4  4  3
  6.722984643525e-01    4  4  4  4
 -1.868570343968e-08    5  1  1  1
  4.732237280043e-09    5  1  2  1
 -4.383834474848e-07    5  1  2  2
  5.608007977841e-10    5  1  3  1
  3.445299162070e-03    5  1  3  2
  4.058582628153e-07    5  1  3  3
 -3.911967523473e-03    5  1  4  1
  2.310918805900e-10    5  1  4  2
  1.981013903133e-09    5  1  4  3
 -1.591974591516e-08    5  1  4  4
  8.570467242709e-03    5  1  5  1
  1.050148422605e-07    5  2  1  1
 -3.983843772205e-07    5  2  2  1
  1.175053582578e-07    5  2  2  2
  3.245090087216e-03    5  2  3  1
  6.375521427310e-10    5  2  3  2
  1.067925408288e-07    5  2  3  3
 -2.380870519926e-10    5  2  4  1
  1.932920907618e-03    5  2  4  2
 -1.461218584714e-10    5  2  4  3
  1.112052597210e-07    5  2  4  4
 -6.346061751487e-10    5  2  5  1
  8.691016617934e-03    5  2  5  2
  1.237471823856e-08    5  3  1  1
  3.245990234413e-03    5  3  2  1
  1.257100214992e-08    5  3  2  2
  3.969079444782e-07    5  3  3  1
  5.405434379907e-09    5  3  3  2
  1.383206614454e-08    5  3  3  3
 -1.995284264485e-09    5  3  4  1
 -1.460400909486e-10    5  3  4  2
  1.933461954347e-03    5  3  4  3
  1.308284906436e-08    5  3  4  4
 -5.381855924181e-09    5  3  5  1
  1.231621289039e-09    5  3  5  2
  8.691497313025e-03    5  3  5  3
 -7.515066310571e-03    5  4  1  1
  4.229375341204e-10    5  4  2  1
 -1.972684977879e-03    5  4  2  2
  3.665699085502e-09    5  4  3  1
  5.703733502805e-10    5  4  3  2
 -1.973671227009e-03    5  4  3  3
 -1.053726305817e-09    5  4  4  1
  5.977571345889e-09    5  4  4  2
  6.963357120959e-10    5  4  4  3
 -1.137407113308e-05    5  4  4  4
 -8.803347463832e-10    5  4  5  1
 -7.527095482197e-10    5  4  5  2
 -1.035205889516e-10    5  4  5  3
  8.734762094822e-03    5  4  5  4
  3.085015008513e-01    5  5  1  1
 -1.241047999306e-09    5  5  2  1
  3.071884393921e-01    5  5  2  2
 -1.049462560669e-08    5  5  3  1
  2.341492250259e-09    5  5  3  2
  3.071889008881e-01    5  5  3  3
 -2.469366789544e-09    5  5  4  1
 -4.689840795472e-09    5  5  4  2
 -5.633204940742e-10    5  5  4  3
  3.066774537542e-01    5  5  4  4
  7.252538856185e-10    5  5  5  1
  4.607024526076e-09    5  5  5  2
  5.286624580043e-10    5  5  5  3
 -1.179109220584e-03    5  5  5  4
  2.416964079268e-01    5  5  5  5
  3.624541231648e-03    6  1  6  1
 -1.172425973262e-11    6  2  6  1
  3.840549122651e-03    6  2  6  2
 -7.713105693056e-11    6  3  6  1
 -2.371212372174e-06    6  3  6  2
  6.395514014193e-04    6  3  6  3
  2.747494012406e-06    6  4  6  1
  5.796574893355e-10    6  4  6  2
  3.404931204435e-11    6  4  6  3
  1.622811942701e-03    6  4  6  4
 -1.242145568341e-05    6  5  6  1
 -6.211390320939e-09    6  5  6  2
 -3.185795768702e-10    6  5  6  3
 -4.450014533552e-03    6  5  6  4
  3.296319173302e-02    6  5  6  5
  2.026373072332e-01    6  6  1  1
 -5.173460780461e-12    6  6  2  1
  2.023979329614e-01    6  6  2  2
 -1.774050114241e-10    6  6  3  1
 -4.151878093327e-06    6  6  3  2
  1.968678707866e-01    6  6  3  3
  4.946725878999e-06    6  6  4  1
  1.809348845621e-10    6  6  4  2
  1.794700418445e-11    6  6  4  3
  1.984453643465e-01    6  6  4  4
 -7.737699608347e-06    6  6  5  1
  2.388501554969e-09    6  6  5  2
  5.730191040317e-10    6  6  5  3
 -3.120018573863e-03    6  6  5  4
  1.808884036662e-01    6  6  5  5
  1.637047181137e-01    6  6  6  6
 -2.415453233871e+00    1  1  0  0
 -2.398783440819e+00    2  2  0  0
  1.838802733829e-11    3  1  0  0
  2.413445073931e-11    3  2  0  0
 -2.398783298562e+00    3  3  0  0
 -4.778597492890e-11    4  1  0  0
 -6.058320649016e-10    4  2  0  0
 -6.605746279519e-11    4  3  0  0
 -2.393066609707e+00    4  4  0  0
  4.538441675989e-08    5  1  0  0
 -3.122084781114e-07    5  2  0  0
 -3.674223631124e-08    5  3  0  0
  1.145135714429e-02    5  4  0  0
 -1.401075359556e+00    5  5  0  0
 -9.080031913082e-01    6  6  0  0
    -64.507341782783   0  0  0  0
