#INFO: **** input file is /projects/bamu3429/BENCHMARK/fresh_atoms/MRPT/vtz/atoms/V_1/mrpt.py ****
import json
from pyscf import gto,scf,mcscf, fci, lo, ci, cc
from pyscf.scf import ROHF, UHF,ROKS
import numpy as np
import pandas as pd

# THIS IS WERE IT STARTS ====================================

df=json.load(open("../../../trail.json"))

spins={'Sc':1, 'Ti':2, 'V':3, 'Cr':6, 'Mn':5, 'Fe':4, 'Cu':1}

nd={'Sc':(1,0), 'Ti':(2,0), 'V':(3,0), 'Cr':(5,0), 'Mn':(5,0), 'Fe':(5,1), 'Cu':(5,5)}

cas={'Sc':3, 'Ti':4, 'V':5, 'Cr':6, 'Mn':7, 'Fe':8, 'Cu':11}

datacsv={}
for nm in ['atom','charge','method','basis','pseudopotential','hf',
           'totalenergy','totalenergy-stocherr','totalenergy-syserr']:
  datacsv[nm]=[]

basis='vtz'
el='V'
charge=1

mol=gto.Mole()
mol.ecp={}
mol.basis={}
mol.ecp[el]=gto.basis.parse_ecp(df[el]['ecp'])
mol.basis[el]=gto.basis.parse(df[el][basis])
mol.charge=charge
if el == 'Cr' or el == 'Cu':
  mol.spin=spins[el]-charge
else:
  mol.spin=spins[el]+charge
mol.build(atom="%s 0. 0. 0."%el,verbose=4)

m=ROHF(mol)
m.level_shift=1000.0
dm=m.from_chk("../../../../HF/atoms/"+el+basis+str(charge)+".chk")
hf=m.kernel(dm)
m.analyze()

from pyscf.shciscf import shci
mc = shci.SHCISCF(m, 6, cas[el]-charge)
#mc.fcisolver.conv_tol = 1e-14
mc.fcisolver.mpiprefix="srun -n20"
mc.fcisolver.num_thrds=12
mc.verbose = 4
cas=mc.kernel()[0]
 
from pyscf.icmpspt import icmpspt
pt=icmpspt.icmpspt(mc,rdmM=500, PTM=1000,\
                          pttype="MRLCC",\
                          third_order=True,\
                          fully_ic=True,\
                          do_dm4=True)

datacsv['atom'].append(el)
datacsv['charge'].append(charge)
datacsv['method'].append('MRPT')
datacsv['basis'].append(basis)
datacsv['pseudopotential'].append('trail')
datacsv['hf'].append(hf)
datacsv['totalenergy'].append(cas+pt)
datacsv['totalenergy-stocherr'].append(0.0)
datacsv['totalenergy-syserr'].append(0.0)
pd.DataFrame(datacsv).to_csv(el+".csv",index=False)

#INFO: ******************** input file end ********************


System: ('Linux', 'bnode0302.rc.int.colorado.edu', '3.10.0-514.41.1.el7.x86_64', '#1 SMP Wed Jan 17 10:26:16 EST 2018', 'x86_64', 'x86_64')  Threads 28
Python 2.7.11 (default, Mar 22 2016, 01:42:54) 
[GCC Intel(R) C++ gcc 4.8 mode]
numpy 1.11.1  scipy 0.17.1
Date: Wed Apr 18 16:06:53 2018
PySCF version 1.4.6
PySCF path  /projects/bamu3429/softwares/pyscf_uptodate/pyscf
GIT ORIG_HEAD f3591ef22170896a4cdc2aadaa6f5da388ffcadb
GIT HEAD      ref: refs/heads/master
GIT master branch  1847583fb1d2472321833d3c71c8b7008e5fabf5

[INPUT] VERBOSE 4
[INPUT] num atoms = 1
[INPUT] num electrons = 12
[INPUT] charge = 1
[INPUT] spin (= nelec alpha-beta = 2S) = 4
[INPUT] symmetry False subgroup None
[INPUT]  1 V      0.000000000000   0.000000000000   0.000000000000 AA    0.000000000000   0.000000000000   0.000000000000 Bohr
[INPUT] ---------------- BASIS SET ---------------- 
[INPUT] l, kappa, [nprim/nctr], expnt,             c_1 c_2 ...
[INPUT] V
[INPUT] 0    0    [12   /1   ]  33.51168105       0.006845
                                15.38532624       -0.214557
                                9.96227367        1.392425
                                8.05943355        -1.485929
                                3.6960334         -0.026725
                                1.49220279        0.457681
                                0.84622253        0.506886
                                0.43855031        0.249453
                                0.2102388         0.007109
                                0.1022422         0.007055
                                0.04832462        -0.000443
                                0.02406855        0.001278
[INPUT] 0    0    [12   /1   ]  33.51168105       -0.001211
                                15.38532624       0.04697
                                9.96227367        -0.329808
                                8.05943355        0.363635
                                3.6960334         0.005985
                                1.49220279        -0.140857
                                0.84622253        -0.203846
                                0.43855031        -0.200776
                                0.2102388         0.022081
                                0.1022422         0.429765
                                0.04832462        0.534383
                                0.02406855        0.187984
[INPUT] 0    0    [12   /1   ]  33.51168105       -0.007111
                                15.38532624       0.233807
                                9.96227367        -1.69649
                                8.05943355        1.967562
                                3.6960334         -0.221986
                                1.49220279        -1.566848
                                0.84622253        0.314532
                                0.43855031        0.552762
                                0.2102388         0.87483
                                0.1022422         0.073061
                                0.04832462        -0.50294
                                0.02406855        -0.328304
[INPUT] 0    0    [12   /1   ]  33.51168105       -0.013861
                                15.38532624       0.372746
                                9.96227367        -2.690047
                                8.05943355        3.225629
                                3.6960334         -0.892796
                                1.49220279        -2.437526
                                0.84622253        2.347767
                                0.43855031        1.223514
                                0.2102388         -1.131537
                                0.1022422         -1.231287
                                0.04832462        0.586808
                                0.02406855        0.648032
[INPUT] 0    0    [1    /1   ]  0.02406855           1
[INPUT] 0    0    [1    /1   ]  0.01198757           1
[INPUT] 1    0    [12   /1   ]  49.83779697       0.000413
                                25.60370921       -0.003442
                                10.40982442       0.097153
                                7.71483683        -0.206888
                                4.49868206        0.083281
                                2.48212838        0.186621
                                1.4387019         0.395144
                                0.72090362        0.377883
                                0.3443302         0.134629
                                0.13162828        0.011074
                                0.05284968        -0.000426
                                0.02121951        0.000256
[INPUT] 1    0    [12   /1   ]  49.83779697       -2.9e-05
                                25.60370921       0.000502
                                10.40982442       -0.020934
                                7.71483683        0.047431
                                4.49868206        -0.020701
                                2.48212838        -0.057583
                                1.4387019         -0.106451
                                0.72090362        -0.140229
                                0.3443302         0.043257
                                0.13162828        0.438687
                                0.05284968        0.536785
                                0.02121951        0.12546
[INPUT] 1    0    [12   /1   ]  49.83779697       4.2e-05
                                25.60370921       -0.00212
                                10.40982442       0.123342
                                7.71483683        -0.318471
                                4.49868206        0.188642
                                2.48212838        0.726079
                                1.4387019         0.273545
                                0.72090362        -0.906715
                                0.3443302         -0.478781
                                0.13162828        0.723888
                                0.05284968        0.310191
                                0.02121951        -0.00813
[INPUT] 1    0    [12   /1   ]  49.83779697       0.000299
                                25.60370921       0.000309
                                10.40982442       -0.131422
                                7.71483683        0.419354
                                4.49868206        -0.585162
                                2.48212838        -0.699409
                                1.4387019         0.95299
                                0.72090362        0.532068
                                0.3443302         -0.999183
                                0.13162828        0.152364
                                0.05284968        0.334676
                                0.02121951        -0.023213
[INPUT] 1    0    [1    /1   ]  0.02121951           1
[INPUT] 1    0    [1    /1   ]  0.00851977           1
[INPUT] 2    0    [10   /1   ]  34.27504048       0.000678
                                16.12418185       -0.017858
                                9.59474528        0.107867
                                3.8690861         0.173949
                                1.82728072        0.26883
                                0.85799457        0.321303
                                0.38035078        0.300128
                                0.15533087        0.170792
                                0.06318167        0.035148
                                0.03734397        0.003549
[INPUT] 2    0    [10   /1   ]  34.27504048       0.000584
                                16.12418185       0.010634
                                9.59474528        -0.094271
                                3.8690861         -0.228668
                                1.82728072        -0.397823
                                0.85799457        -0.076182
                                0.38035078        0.313255
                                0.15533087        0.472762
                                0.06318167        0.196314
                                0.03734397        0.015996
[INPUT] 2    0    [10   /1   ]  34.27504048       0.003588
                                16.12418185       -0.007285
                                9.59474528        -0.060176
                                3.8690861         -0.418946
                                1.82728072        -0.38644
                                0.85799457        0.691971
                                0.38035078        0.444732
                                0.15533087        -0.454572
                                0.06318167        -0.39879
                                0.03734397        -0.019185
[INPUT] 2    0    [1    /1   ]  0.03734397           1
[INPUT] 2    0    [1    /1   ]  0.02207241           1
[INPUT] 3    0    [1    /1   ]  2.578583             1
[INPUT] 3    0    [1    /1   ]  0.725076             1
[INPUT] 3    0    [1    /1   ]  0.2038853            1
[INPUT] 4    0    [1    /1   ]  2.326339             1
[INPUT] 4    0    [1    /1   ]  0.65414707           1
nuclear repulsion = 0
number of shells = 22
number of NR pGTOs = 399
number of NR cGTOs = 88
basis = {'V': [[0, [33.51168105, 0.006845], [15.38532624, -0.214557], [9.96227367, 1.392425], [8.05943355, -1.485929], [3.6960334, -0.026725], [1.49220279, 0.457681], [0.84622253, 0.506886], [0.43855031, 0.249453], [0.2102388, 0.007109], [0.1022422, 0.007055], [0.04832462, -0.000443], [0.02406855, 0.001278]], [0, [33.51168105, -0.001211], [15.38532624, 0.04697], [9.96227367, -0.329808], [8.05943355, 0.363635], [3.6960334, 0.005985], [1.49220279, -0.140857], [0.84622253, -0.203846], [0.43855031, -0.200776], [0.2102388, 0.022081], [0.1022422, 0.429765], [0.04832462, 0.534383], [0.02406855, 0.187984]], [0, [33.51168105, -0.007111], [15.38532624, 0.233807], [9.96227367, -1.69649], [8.05943355, 1.967562], [3.6960334, -0.221986], [1.49220279, -1.566848], [0.84622253, 0.314532], [0.43855031, 0.552762], [0.2102388, 0.87483], [0.1022422, 0.073061], [0.04832462, -0.50294], [0.02406855, -0.328304]], [0, [33.51168105, -0.013861], [15.38532624, 0.372746], [9.96227367, -2.690047], [8.05943355, 3.225629], [3.6960334, -0.892796], [1.49220279, -2.437526], [0.84622253, 2.347767], [0.43855031, 1.223514], [0.2102388, -1.131537], [0.1022422, -1.231287], [0.04832462, 0.586808], [0.02406855, 0.648032]], [0, [0.02406855, 1.0]], [0, [0.01198757, 1.0]], [1, [49.83779697, 0.000413], [25.60370921, -0.003442], [10.40982442, 0.097153], [7.71483683, -0.206888], [4.49868206, 0.083281], [2.48212838, 0.186621], [1.4387019, 0.395144], [0.72090362, 0.377883], [0.3443302, 0.134629], [0.13162828, 0.011074], [0.05284968, -0.000426], [0.02121951, 0.000256]], [1, [49.83779697, -2.9e-05], [25.60370921, 0.000502], [10.40982442, -0.020934], [7.71483683, 0.047431], [4.49868206, -0.020701], [2.48212838, -0.057583], [1.4387019, -0.106451], [0.72090362, -0.140229], [0.3443302, 0.043257], [0.13162828, 0.438687], [0.05284968, 0.536785], [0.02121951, 0.12546]], [1, [49.83779697, 4.2e-05], [25.60370921, -0.00212], [10.40982442, 0.123342], [7.71483683, -0.318471], [4.49868206, 0.188642], [2.48212838, 0.726079], [1.4387019, 0.273545], [0.72090362, -0.906715], [0.3443302, -0.478781], [0.13162828, 0.723888], [0.05284968, 0.310191], [0.02121951, -0.00813]], [1, [49.83779697, 0.000299], [25.60370921, 0.000309], [10.40982442, -0.131422], [7.71483683, 0.419354], [4.49868206, -0.585162], [2.48212838, -0.699409], [1.4387019, 0.95299], [0.72090362, 0.532068], [0.3443302, -0.999183], [0.13162828, 0.152364], [0.05284968, 0.334676], [0.02121951, -0.023213]], [1, [0.02121951, 1.0]], [1, [0.00851977, 1.0]], [2, [34.27504048, 0.000678], [16.12418185, -0.017858], [9.59474528, 0.107867], [3.8690861, 0.173949], [1.82728072, 0.26883], [0.85799457, 0.321303], [0.38035078, 0.300128], [0.15533087, 0.170792], [0.06318167, 0.035148], [0.03734397, 0.003549]], [2, [34.27504048, 0.000584], [16.12418185, 0.010634], [9.59474528, -0.094271], [3.8690861, -0.228668], [1.82728072, -0.397823], [0.85799457, -0.076182], [0.38035078, 0.313255], [0.15533087, 0.472762], [0.06318167, 0.196314], [0.03734397, 0.015996]], [2, [34.27504048, 0.003588], [16.12418185, -0.007285], [9.59474528, -0.060176], [3.8690861, -0.418946], [1.82728072, -0.38644], [0.85799457, 0.691971], [0.38035078, 0.444732], [0.15533087, -0.454572], [0.06318167, -0.39879], [0.03734397, -0.019185]], [2, [0.03734397, 1.0]], [2, [0.02207241, 1.0]], [3, [2.578583, 1.0]], [3, [0.725076, 1.0]], [3, [0.2038853, 1.0]], [4, [2.326339, 1.0]], [4, [0.65414707, 1.0]]]}
ecp = {'V': [10, [[-1, [[], [[8.85341849, 13.0]], [[14.12393489, 1867.96836466], [10.01469125, -417.2185296], [16.87739786, -6735.41034163], [17.42661229, 5248.9519915]], [[8.14766139, 115.09444037]]]], [0, [[], [], [[10.17161428, 8429.89768085], [6.62108601, -4738.0869454], [6.4407206, 3874.69004628], [11.26222343, -9817.80452096], [19.82459033, -286.16022228], [14.35299938, 2571.80634504]], []]], [1, [[], [], [[10.25117807, 40641.17869487], [10.49106006, -41559.00487832], [13.7869188, 3357.33248976], [16.29479305, -896.47755921], [7.79003518, -1904.45864373], [6.62830213, 382.3757783]], []]], [2, [[], [], [[8.601477, 4615.05527413], [10.66674565, -3671.60281242], [15.19026557, 4480.50015686], [8.06189603, -2591.12632756], [19.82232597, 2587.18683714], [18.22318105, -5431.92186158]], []]]]]}
CPU time:         3.77


******** <class 'pyscf.scf.rohf.ROHF'> flags ********
method = ROHF
initial guess = minao
damping factor = 0
level shift factor = 1000.0
DIIS = <class 'pyscf.scf.diis.CDIIS'>
DIIS start cycle = 1
DIIS space = 8
SCF tol = 1e-09
SCF gradient tol = None
max. SCF cycles = 50
direct_scf = True
direct_scf_tol = 1e-13
chkfile to save SCF result = /rc_scratch/bamu3429/tmpA0pwvj
max_memory 4000 MB (current use 156 MB)
num. doubly occ = 4  num. singly occ = 4
Set gradient conv threshold to 3.16228e-05
init E= -70.4787062082356
  HOMO = 499.804183537348  LUMO = 999.807870814665
cycle= 1 E= -70.4787062082359  delta_E= -3.13e-13  |g|= 1.4e-05  |ddm|= 2.81e-08
  HOMO = -0.195816474521384  LUMO = -0.192129184251543
Extra cycle  E= -70.4787061781192  delta_E= 3.01e-08  |g|= 0.000105  |ddm|= 0.000834
SCF not converged.
SCF energy = -70.4787061781192 after 50 cycles
**** MO energy ****
                Roothaan           | alpha              | beta
MO #1   energy= -3.288356107457    | -3.42339019968557  | -3.15332192977135  occ= 2
MO #2   energy= -2.12071409862942  | -2.2713150384405   | -1.97011315881835  occ= 2
MO #3   energy= -2.12071405003426  | -2.27131532253175  | -1.97011277753679  occ= 2
MO #4   energy= -2.11287884775271  | -2.31447562680411  | -1.9112820687013   occ= 2
MO #5   energy= -0.231118357239865 | -0.61675600026119  | 0.154518875157248  occ= 1
MO #6   energy= -0.204609687947361 | -0.577459179093546 | 0.168239056010413  occ= 1
MO #7   energy= -0.204609503487514 | -0.577458890236413 | 0.168239136479018  occ= 1
MO #8   energy= -0.195816474521384 | -0.564949415027786 | 0.173317452895803  occ= 1
MO #9   energy= -0.192129184251543 | -0.20598969758533  | -0.178269990549287 occ= 0
MO #10  energy= -0.112517273507469 | -0.117383422606988 | -0.107651124407952 occ= 0
MO #11  energy= -0.112517248266198 | -0.117383407050872 | -0.107651089481524 occ= 0
MO #12  energy= -0.10887421912779  | -0.115254106369758 | -0.102494331885824 occ= 0
MO #13  energy= -0.0702548875308989 | -0.0726798964982742 | -0.0678299147896027 occ= 0
MO #14  energy= -0.0580128362270109 | -0.0619475374436016 | -0.0540781350104185 occ= 0
MO #15  energy= -0.0499962518196376 | -0.0514604977868827 | -0.0485320058523891 occ= 0
MO #16  energy= -0.049996244640605 | -0.0514604940271068 | -0.0485319952541038 occ= 0
MO #17  energy= -0.0489377655121175 | -0.0509551125645107 | -0.0469204184597237 occ= 0
MO #18  energy= -0.0472648615606375 | -0.0484008074951918 | -0.0461289852116698 occ= 0
MO #19  energy= -0.0461116801337721 | -0.0473049546578515 | -0.0449183532067867 occ= 0
MO #20  energy= -0.0461116723278407 | -0.0473049473594418 | -0.0449183449527923 occ= 0
MO #21  energy= -0.0457064072528003 | -0.0469269409103245 | -0.044485915912192 occ= 0
MO #22  energy= -0.00789635693196286 | -0.0198169829181329 | 0.00402426905420209 occ= 0
MO #23  energy= 0.0390642507168095 | 0.0340122907258544 | 0.0441163120834485 occ= 0
MO #24  energy= 0.0421609378928775 | 0.0366642742838835 | 0.0476576362979678 occ= 0
MO #25  energy= 0.0421609599244786 | 0.0366642928820348 | 0.0476576616669671 occ= 0
MO #26  energy= 0.0432827411597736 | 0.0375921097541587 | 0.0489730610164212 occ= 0
MO #27  energy= 0.043823197521755  | 0.0342180222098709 | 0.0534283728336377 occ= 0
MO #28  energy= 0.0438232342727778 | 0.0342180339314804 | 0.053428434614075  occ= 0
MO #29  energy= 0.0492544440587822 | 0.0356033947154874 | 0.0629054934020769 occ= 0
MO #30  energy= 0.0818723687823001 | 0.071502955469919  | 0.0922417029175294 occ= 0
MO #31  energy= 0.0961630135715883 | 0.0733646177467221 | 0.118961409396454  occ= 0
MO #32  energy= 0.532197878813947  | 0.520618426438865  | 0.543777331189026  occ= 0
MO #33  energy= 0.532197880257005  | 0.520618431617116  | 0.543777328896894  occ= 0
MO #34  energy= 0.535641882635176  | 0.516604835713044  | 0.554678929557307  occ= 0
MO #35  energy= 0.536831602176766  | 0.523370679644954  | 0.550292524708577  occ= 0
MO #36  energy= 0.538967684970833  | 0.521153935080118  | 0.556781434861548  occ= 0
MO #37  energy= 0.538967721711976  | 0.521153960517989  | 0.556781482905962  occ= 0
MO #38  energy= 0.539902932194197  | 0.521368551842848  | 0.558437312545547  occ= 0
MO #39  energy= 0.559003126106792  | 0.511398561930361  | 0.606607988760667  occ= 0
MO #40  energy= 0.574421165208117  | 0.526095741329688  | 0.622747148964139  occ= 0
MO #41  energy= 0.574421274876617  | 0.526095848178846  | 0.622747261212871  occ= 0
MO #42  energy= 0.579800299170952  | 0.531159983187928  | 0.628441217860644  occ= 0
MO #43  energy= 0.623928315776584  | 0.600961173745625  | 0.646895457807541  occ= 0
MO #44  energy= 0.799219507531861  | 0.774756364103339  | 0.823682639989138  occ= 0
MO #45  energy= 1.39897557994029   | 1.35995368673261   | 1.43799747314797   occ= 0
MO #46  energy= 1.39897573995891   | 1.35995376588401   | 1.43799771403382   occ= 0
MO #47  energy= 1.42202741891868   | 1.37075877662877   | 1.47329606120859   occ= 0
MO #48  energy= 2.32831426216283   | 2.27124643471935   | 2.38538208960632   occ= 0
MO #49  energy= 2.32831426602621   | 2.27124655266702   | 2.3853819793854    occ= 0
MO #50  energy= 2.33079903118963   | 2.24865479071224   | 2.41294327166702   occ= 0
MO #51  energy= 2.33898367944051   | 2.28139082264004   | 2.396576536241     occ= 0
MO #52  energy= 2.34094985639344   | 2.27096615013778   | 2.41093356264909   occ= 0
MO #53  energy= 2.34094993473423   | 2.27096606696869   | 2.41093380249977   occ= 0
MO #54  energy= 2.34222676359784   | 2.26468297019686   | 2.41977055699883   occ= 0
MO #55  energy= 2.78936996851253   | 2.76779500439169   | 2.81094494359966   occ= 0
MO #56  energy= 2.78956378658269   | 2.7673288847664    | 2.81179868839897   occ= 0
MO #57  energy= 2.80027475584137   | 2.77329721233382   | 2.82725230320467   occ= 0
MO #58  energy= 2.80027479054853   | 2.77329718272432   | 2.82725240223371   occ= 0
MO #59  energy= 2.80543234731284   | 2.77855089571239   | 2.83231379891329   occ= 0
MO #60  energy= 2.80934556839025   | 2.77433851559677   | 2.84435262093116   occ= 0
MO #61  energy= 2.81142463628054   | 2.7780214147951    | 2.84482786294412   occ= 0
MO #62  energy= 2.81142469842898   | 2.7780215170772    | 2.84482788495701   occ= 0
MO #63  energy= 2.81249687601594   | 2.77934430552573   | 2.84564945566741   occ= 0
MO #64  energy= 2.88523741316028   | 2.80675651417444   | 2.96371839188074   occ= 0
MO #65  energy= 2.90707667550185   | 2.83142488216606   | 2.98272855732317   occ= 0
MO #66  energy= 2.90707681742536   | 2.83142505408969   | 2.98272866922972   occ= 0
MO #67  energy= 2.91424617629719   | 2.83966442060604   | 2.98882803150514   occ= 0
MO #68  energy= 2.91610726688921   | 2.88944569938024   | 2.9427688343982    occ= 0
MO #69  energy= 4.09828323795753   | 4.05535869279609   | 4.14120778205748   occ= 0
MO #70  energy= 5.98558253112624   | 5.94513483875097   | 6.02603022350149   occ= 0
MO #71  energy= 5.98558274242213   | 5.94513497364235   | 6.02603051120191   occ= 0
MO #72  energy= 6.01569273254473   | 5.96363880196028   | 6.06774666312918   occ= 0
MO #73  energy= 7.73932173195526   | 7.67781658743687   | 7.80082687647365   occ= 0
MO #74  energy= 7.7393217389761    | 7.67781662533793   | 7.80082685261428   occ= 0
MO #75  energy= 7.75020658287843   | 7.65671180987706   | 7.8437013558798    occ= 0
MO #76  energy= 7.75418669034383   | 7.68806638149958   | 7.82030699918807   occ= 0
MO #77  energy= 7.76083472438686   | 7.67623625041431   | 7.84543319835944   occ= 0
MO #78  energy= 7.76083485870915   | 7.67623636995258   | 7.84543334746572   occ= 0
MO #79  energy= 7.76373760176375   | 7.67632759505962   | 7.8511476084679    occ= 0
MO #80  energy= 10.223333627568    | 10.1824595221042   | 10.2642077362799   occ= 0
MO #81  energy= 10.2236210843665   | 10.1818752527062   | 10.2653669160269   occ= 0
MO #82  energy= 10.2407476286683   | 10.1910143935944   | 10.2904808638336   occ= 0
MO #83  energy= 10.2407476872212   | 10.1910143484648   | 10.2904810260714   occ= 0
MO #84  energy= 10.2488075249084   | 10.1991170319645   | 10.2984980178521   occ= 0
MO #85  energy= 10.2569085918256   | 10.1932076287603   | 10.3206095557655   occ= 0
MO #86  energy= 10.2598650070706   | 10.1991309570985   | 10.3205990595437   occ= 0
MO #87  energy= 10.2598650901278   | 10.1991311124051   | 10.320599070351    occ= 0
MO #88  energy= 10.2614595532004   | 10.2014861373104   | 10.321432972057    occ= 0
 ** Mulliken pop on meta-lowdin orthogonal AOs  **
 ** Mulliken pop  **
pop of  0V 3s        1.99968
pop of  0V 4s        0.00030
pop of  0V 5s        0.00012
pop of  0V 6s        0.00001
pop of  0V 7s        0.00000
pop of  0V 8s        0.00000
pop of  0V 3px       1.99976
pop of  0V 3py       1.99976
pop of  0V 3pz       1.99972
pop of  0V 4px       0.00005
pop of  0V 4py       0.00005
pop of  0V 4pz       0.00014
pop of  0V 5px       0.00007
pop of  0V 5py       0.00007
pop of  0V 5pz       0.00008
pop of  0V 6px       0.00001
pop of  0V 6py       0.00001
pop of  0V 6pz       0.00002
pop of  0V 7px       0.00000
pop of  0V 7py       0.00000
pop of  0V 7pz       0.00000
pop of  0V 8px       0.00000
pop of  0V 8py       0.00000
pop of  0V 8pz       0.00000
pop of  0V 3dxy      0.99960
pop of  0V 3dyz      0.99921
pop of  0V 3dz^2     0.99872
pop of  0V 3dxz      0.99921
pop of  0V 3dx2-y2    0.00000
pop of  0V 4dxy      0.00004
pop of  0V 4dyz      0.00069
pop of  0V 4dz^2     0.00109
pop of  0V 4dxz      0.00069
pop of  0V 4dx2-y2    0.00000
pop of  0V 5dxy      0.00011
pop of  0V 5dyz      0.00002
pop of  0V 5dz^2     0.00001
pop of  0V 5dxz      0.00002
pop of  0V 5dx2-y2    0.00000
pop of  0V 6dxy      0.00022
pop of  0V 6dyz      0.00006
pop of  0V 6dz^2     0.00003
pop of  0V 6dxz      0.00006
pop of  0V 6dx2-y2    0.00000
pop of  0V 7dxy      0.00002
pop of  0V 7dyz      0.00000
pop of  0V 7dz^2     0.00000
pop of  0V 7dxz      0.00000
pop of  0V 7dx2-y2    0.00000
pop of  0V 4fy^3     0.00003
pop of  0V 4fxyz     0.00000
pop of  0V 4fyz^2    0.00001
pop of  0V 4fz^3     0.00002
pop of  0V 4fxz^2    0.00001
pop of  0V 4fzx^2    0.00000
pop of  0V 4fx^3     0.00003
pop of  0V 5fy^3     0.00007
pop of  0V 5fxyz     0.00000
pop of  0V 5fyz^2    0.00000
pop of  0V 5fz^3     0.00003
pop of  0V 5fxz^2    0.00000
pop of  0V 5fzx^2    0.00000
pop of  0V 5fx^3     0.00007
pop of  0V 6fy^3     0.00001
pop of  0V 6fxyz     0.00000
pop of  0V 6fyz^2    0.00000
pop of  0V 6fz^3     0.00000
pop of  0V 6fxz^2    0.00000
pop of  0V 6fzx^2    0.00000
pop of  0V 6fx^3     0.00001
pop of  0V 5g-4      0.00000
pop of  0V 5g-3      0.00000
pop of  0V 5g-2      0.00000
pop of  0V 5g-1      0.00000
pop of  0V 5g 0      0.00000
pop of  0V 5g 1      0.00000
pop of  0V 5g 2      0.00000
pop of  0V 5g 3      0.00000
pop of  0V 5g 4      0.00001
pop of  0V 6g-4      0.00000
pop of  0V 6g-3      0.00001
pop of  0V 6g-2      0.00000
pop of  0V 6g-1      0.00001
pop of  0V 6g 0      0.00001
pop of  0V 6g 1      0.00001
pop of  0V 6g 2      0.00000
pop of  0V 6g 3      0.00001
pop of  0V 6g 4      0.00002
 ** Mulliken atomic charges  **
charge of  0V =      1.00000

******** <class 'pyscf.mcscf.mc1step.CASSCF'> flags ********
CAS (4e+0e, 6o), ncore = 4, nvir = 78
max_cycle_macro = 50
max_cycle_micro = 4
conv_tol = 1e-07
conv_tol_grad = None
orbital rotation max_stepsize = 0.02
augmented hessian ah_max_cycle = 30
augmented hessian ah_conv_tol = 1e-12
augmented hessian ah_linear dependence = 1e-14
augmented hessian ah_level shift = 0
augmented hessian ah_start_tol = 2.5
augmented hessian ah_start_cycle = 3
augmented hessian ah_grad_trust_region = 3
kf_trust_region = 3
kf_interval = 4
ci_response_space = 4
ci_grad_trust_region = 3
with_dep4 0
natorb = False
canonicalization = True
sorting_mo_energy = False
chkfile = ./scratch/82614/tmpf3mShU
max_memory 4000 MB (current use 254 MB)
internal_rotation = False

******** SHCI flags ********
executable             = /home/bamu3429/softwares/dice/Dice
mpiprefix              = srun -n20
scratchDirectory       = ./scratch/82614
integralFile           = ./FCIDUMP
configFile             = ./input.dat
outputFile             = ./output.dat
maxIter                = 6
sweep_iter             = []
sweep_epsilon          = []
nPTiter                = 0
Stochastic             = True
fullrestart            = False
restart                = False
num_thrds              = 12
memory                 = None

CASCI E = -70.4787061781188  S^2 = 6.0000000
Set conv_tol_grad to 0.000316228
macro iter 1 (6 JK  1 micro), CASSCF E = -70.4787061877607  dE = -9.6418518e-09  S^2 = 6.0000000
               |grad[o]|=9.18e-05  |grad[c]|= None  |ddm|=    0
1-step CASSCF converged in 1 macro (6 JK 1 micro) steps
CASSCF canonicalization
CASSCF energy = -70.4787061877607


--------------------------------------------------
                 ICMPSPT CALCULATION              
--------------------------------------------------

Perturbation type: MRLCC
With fully internally contracted scheme
With third order correction

Preparing necessary RDMs
......production of RDMs took      15.05 sec
Reading binary 4RDM from DICE
......reading the RDM took          1.68 sec

(GOOD) Trace 4RDM:     24.0 =    4*    3*    2*    1
(GOOD) Trace 3RDM:     24.0 =    4*    3*    2
(GOOD) Trace 2RDM:     12.0 =    4*    3
(GOOD) Trace 1RDM:      4.0 =    4

Producing the integrals
......production of INT took      88.07 sec

Energy_core =  -64.50734178
Energy      =  -70.47870619

WARNING: Have to use natural orbitals from CAASCF
         offdiagonal elements:    0.68622529

Basic ingredients written to int/
......savings of INGREDIENTS took      74.36 sec

Second-order:
perturber CCVV --        -0.139875930
perturber CCAV --        -0.061581079
perturber ACVV --        -0.151041489
perturber CCAA --        -0.013717677
perturber AAVV --        -0.052790457
perturber CAAV --        -0.064754789
perturber AAAV --        -0.000179272
perturber AAAC --        -0.000017726
Total:                   -0.483958418

Third-order:              0.000422436

Total PT       --        -0.483535982

