 &FCI NORB=3 ,NELEC=4 ,MS2=2,
  ORBSYM=1,1,1,
  ISYM=1,
 &END
  7.858710662245e-01    1  1  1  1
 -6.562673169281e-11    2  1  1  1
  4.028965893519e-02    2  1  2  1
  7.259253145308e-01    2  2  1  1
 -7.609262846289e-11    2  2  2  1
  8.284297882181e-01    2  2  2  2
  7.259854526318e-11    3  1  1  1
  7.068224524550e-11    3  1  2  2
  4.028965894289e-02    3  1  3  1
  7.391254348893e-12    3  2  2  1
 -5.275795970486e-12    3  2  3  1
  4.167641852349e-02    3  2  3  2
  7.259253146484e-01    3  3  1  1
 -6.557237756292e-11    3  3  2  1
  7.450769513128e-01    3  3  2  2
  8.539085091397e-11    3  3  3  1
  8.284297885015e-01    3  3  3  3
 -2.763298573271e+00    1  1  0  0
  1.514170092442e-10    2  1  0  0
 -2.818522362935e+00    2  2  0  0
 -1.741921836314e-10    3  1  0  0
 -1.892816312239e-12    3  2  0  0
 -2.818522363277e+00    3  3  0  0
     -8.799650282492   0  0  0  0
