 &FCI NORB=3 ,NELEC=3 ,MS2=1,
  ORBSYM=1,1,1,
  ISYM=1,
 &END
  8.920926006587e-01    1  1  1  1
  4.588884451671e-02    2  1  2  1
  8.095107219850e-01    2  2  1  1
  9.110516648603e-01    2  2  2  2
  4.876364381496e-02    3  1  3  1
  4.588896647595e-02    3  2  3  2
  8.063646497068e-01    3  3  1  1
  8.095115481256e-01    3  3  2  2
  8.920941740311e-01    3  3  3  3
 -2.854990157462e+00    1  1  0  0
 -2.869136447599e+00    2  2  0  0
 -2.854991516045e+00    3  3  0  0
     -8.911897751877   0  0  0  0
