#INFO: **** input file is /projects/bamu3429/BENCHMARK/fresh_atoms/MRPT/vqz/atoms/O_1/mrpt.py ****
import json
from pyscf import gto,scf,mcscf, fci, lo, ci, cc
from pyscf.scf import ROHF, UHF,ROKS
import numpy as np
import pandas as pd

# THIS IS WERE IT STARTS ====================================

df=json.load(open("../../../trail.json"))

spins={'Sc':1, 'Ti':2, 'V':3, 'Cr':6, 'Mn':5, 'Fe':4, 'Cu':1}

nd={'Sc':(1,0), 'Ti':(2,0), 'V':(3,0), 'Cr':(5,0), 'Mn':(5,0), 'Fe':(5,1), 'Cu':(5,5)}

cas={'Sc':3, 'Ti':4, 'V':5, 'Cr':6, 'Mn':7, 'Fe':8, 'Cu':11}

datacsv={}
for nm in ['atom','charge','method','basis','pseudopotential','hf',
           'totalenergy','totalenergy-stocherr','totalenergy-syserr']:
  datacsv[nm]=[]

basis='vqz'
el='O'
charge=1

mol=gto.Mole()
mol.ecp={}
mol.basis={}
mol.ecp[el]=gto.basis.parse_ecp(df[el]['ecp'])
mol.basis[el]=gto.basis.parse(df[el][basis])
mol.charge=charge
mol.spin=1
mol.build(atom="%s 0. 0. 0."%el,verbose=4)

m=ROHF(mol)
m.level_shift=1000.0
#dm=m.from_chk("../../../../HF/atoms/"+el+basis+str(charge)+".chk")
hf=m.kernel()#dm)
m.analyze()

from pyscf.shciscf import shci
mc = shci.SHCISCF(m, 3, 3)
#mc.fcisolver.conv_tol = 1e-14
mc.fcisolver.mpiprefix="mpirun -np 28"
mc.fcisolver.num_thrds=12
mc.verbose = 4
cas=mc.kernel()[0]
 
from pyscf.icmpspt import icmpspt
pt=icmpspt.icmpspt(mc,rdmM=500, PTM=1000,\
                          pttype="MRLCC",\
                          third_order=True,\
                          fully_ic=True,\
                          do_dm4=True)

datacsv['atom'].append(el)
datacsv['charge'].append(charge)
datacsv['method'].append('MRPT')
datacsv['basis'].append(basis)
datacsv['pseudopotential'].append('trail')
datacsv['hf'].append(hf)
datacsv['totalenergy'].append(cas+pt)
datacsv['totalenergy-stocherr'].append(0.0)
datacsv['totalenergy-syserr'].append(0.0)
pd.DataFrame(datacsv).to_csv(el+".csv",index=False)

#INFO: ******************** input file end ********************


System: ('Linux', 'bnode0304.rc.int.colorado.edu', '3.10.0-514.41.1.el7.x86_64', '#1 SMP Wed Jan 17 10:26:16 EST 2018', 'x86_64', 'x86_64')  Threads 28
Python 2.7.11 (default, Mar 22 2016, 01:42:54) 
[GCC Intel(R) C++ gcc 4.8 mode]
numpy 1.11.1  scipy 0.17.1
Date: Thu Mar 29 12:36:39 2018
PySCF version 1.4
PySCF path  /projects/bamu3429/softwares/pyscf_uptodate/pyscf
GIT ORIG_HEAD e2292e6edec2b0e0024c21b81de03db1d7bd4121
GIT HEAD      ref: refs/heads/master
GIT master branch  f3591ef22170896a4cdc2aadaa6f5da388ffcadb

[INPUT] VERBOSE 4
[INPUT] num atoms = 1
[INPUT] num electrons = 5
[INPUT] charge = 1
[INPUT] spin (= nelec alpha-beta = 2S) = 1
[INPUT] symmetry False subgroup None
[INPUT]  1 O      0.000000000000   0.000000000000   0.000000000000 AA    0.000000000000   0.000000000000   0.000000000000 Bohr
[INPUT] ---------------- BASIS SET ---------------- 
[INPUT] l, kappa, [nprim/nctr], expnt,             c_1 c_2 ...
[INPUT] O
[INPUT] 0    0    [10   /1   ]  57.663349         -0.002794
                                35.726816         0.023976
                                22.453757         -0.115974
                                14.732301         0.288033
                                9.739917          -0.274786
                                5.042008          -0.083789
                                2.157818          0.063778
                                1.002916          0.410182
                                0.421839          0.504044
                                0.173041          0.172152
[INPUT] 0    0    [1    /1   ]  1.70747              1
[INPUT] 0    0    [1    /1   ]  0.617491             1
[INPUT] 0    0    [1    /1   ]  0.223309             1
[INPUT] 0    0    [1    /1   ]  0.084592             1
[INPUT] 1    0    [10   /1   ]  52.47406          -0.000522
                                32.138432         0.004857
                                19.458579         -0.027749
                                11.839344         0.074258
                                7.91003           0.014369
                                3.670858          0.153479
                                1.53966           0.283685
                                0.647119          0.358201
                                0.267853          0.29559
                                0.107198          0.104889
[INPUT] 1    0    [1    /1   ]  1.345435             1
[INPUT] 1    0    [1    /1   ]  0.458358             1
[INPUT] 1    0    [1    /1   ]  0.156151             1
[INPUT] 1    0    [1    /1   ]  0.045837             1
[INPUT] 2    0    [1    /1   ]  3.661538             1
[INPUT] 2    0    [1    /1   ]  1.279275             1
[INPUT] 2    0    [1    /1   ]  0.446952             1
[INPUT] 2    0    [1    /1   ]  0.148191             1
[INPUT] 3    0    [1    /1   ]  2.598839             1
[INPUT] 3    0    [1    /1   ]  0.849032             1
[INPUT] 3    0    [1    /1   ]  0.310222             1
[INPUT] 4    0    [1    /1   ]  1.838653             1
[INPUT] 4    0    [1    /1   ]  0.706784             1
nuclear repulsion = 0
number of shells = 19
number of NR pGTOs = 115
number of NR cGTOs = 79
basis = {'O': [[0, [57.663349, -0.002794], [35.726816, 0.023976], [22.453757, -0.115974], [14.732301, 0.288033], [9.739917, -0.274786], [5.042008, -0.083789], [2.157818, 0.063778], [1.002916, 0.410182], [0.421839, 0.504044], [0.173041, 0.172152]], [0, [1.70747, 1.0]], [0, [0.617491, 1.0]], [0, [0.223309, 1.0]], [0, [0.084592, 1.0]], [1, [52.47406, -0.000522], [32.138432, 0.004857], [19.458579, -0.027749], [11.839344, 0.074258], [7.91003, 0.014369], [3.670858, 0.153479], [1.53966, 0.283685], [0.647119, 0.358201], [0.267853, 0.29559], [0.107198, 0.104889]], [1, [1.345435, 1.0]], [1, [0.458358, 1.0]], [1, [0.156151, 1.0]], [1, [0.045837, 1.0]], [2, [3.661538, 1.0]], [2, [1.279275, 1.0]], [2, [0.446952, 1.0]], [2, [0.148191, 1.0]], [3, [2.598839, 1.0]], [3, [0.849032, 1.0]], [3, [0.310222, 1.0]], [4, [1.838653, 1.0]], [4, [0.706784, 1.0]]]}
ecp = {'O': [2, [[-1, [[], [[10.27717748, 6.0]], [[15.99566749, 1232.50197768], [10.46901775, -696.47008301], [14.6384801, -2654.22657081], [12.57591181, 2101.67732548]], [[7.77739102, 61.66306486]]]], [0, [[], [], [[12.39426073, -656683.37638839], [12.38126171, 657858.57667068], [8.57671033, 511.50098405], [9.89256508, -2579.54665641], [28.05641604, -57.68129584], [17.24753607, 970.30940152]], []]], [1, [[], [], [[14.78918914, -363027.24258186], [14.82014018, 361852.52314043], [22.89622221, -1300.20069256], [8.51331893, -181.96869573], [11.48609758, 2194.87589959], [27.22017524, 451.19906206]], []]]]]}
CPU time:         3.76


******** <class 'pyscf.scf.rohf.ROHF'> flags ********
method = ROHF
initial guess = minao
damping factor = 0
level shift factor = 1000.0
DIIS = <class 'pyscf.scf.diis.CDIIS'>
DIIS start cycle = 1
DIIS space = 8
SCF tol = 1e-09
SCF gradient tol = None
max. SCF cycles = 50
direct_scf = True
direct_scf_tol = 1e-13
chkfile to save SCF result = /projects/bamu3429/BENCHMARK/fresh_atoms/MRPT/vqz/atoms/O_1/tmps78PrL
max_memory 4000 MB (current use 77 MB)
num. doubly occ = 2  num. singly occ = 1
Set gradient conv threshold to 3.16228e-05
init E= -15.1342521964541

WARN: HOMO 332.929598744161 >= LUMO 332.929598744161

cycle= 1 E= -14.9273503570957  delta_E= 0.207  |g|= 0.602  |ddm|= 1.29
  HOMO = 499.006202279676  LUMO = 999.298646077328
cycle= 2 E= -14.9278902249188  delta_E= -0.00054  |g|=  0.6  |ddm|= 0.00311
  HOMO = 499.126862156276  LUMO = 999.414357097104
cycle= 3 E= -14.9283636633881  delta_E= -0.000473  |g|= 0.598  |ddm|= 0.00271
  HOMO = 499.147458326311  LUMO = 999.434263990756
cycle= 4 E= -14.9288165400493  delta_E= -0.000453  |g|= 0.596  |ddm|= 0.00252
  HOMO = 499.148760190355  LUMO = 999.435682563743
cycle= 5 E= -14.9292659274941  delta_E= -0.000449  |g|= 0.594  |ddm|= 0.00254
  HOMO = 499.173957615975  LUMO = 999.453568211244
cycle= 6 E= -14.9297068779385  delta_E= -0.000441  |g|= 0.593  |ddm|= 0.00285
  HOMO = 499.174576367633  LUMO = 999.45232142482
cycle= 7 E= -14.9301436553705  delta_E= -0.000437  |g|= 0.591  |ddm|= 0.0027
  HOMO = 499.167690628517  LUMO = 999.450696928121
cycle= 8 E= -14.930580281282  delta_E= -0.000437  |g|= 0.59  |ddm|= 0.00254
  HOMO = 499.166532854014  LUMO = 999.450102594309
cycle= 9 E= -14.9310150379142  delta_E= -0.000435  |g|= 0.588  |ddm|= 0.00256
  HOMO = 499.169584418734  LUMO = 999.450237820523
cycle= 10 E= -14.9314458013612  delta_E= -0.000431  |g|= 0.586  |ddm|= 0.00252
  HOMO = 499.171114972538  LUMO = 999.450728579938
cycle= 11 E= -14.931875279023  delta_E= -0.000429  |g|= 0.585  |ddm|= 0.00258
  HOMO = 499.159715568343  LUMO = 999.44151482298
cycle= 12 E= -14.9323075772868  delta_E= -0.000432  |g|= 0.583  |ddm|= 0.00234
  HOMO = 499.167392132976  LUMO = 999.447761603003
cycle= 13 E= -14.9327340729913  delta_E= -0.000426  |g|= 0.581  |ddm|= 0.00243
  HOMO = 499.159555273917  LUMO = 999.441173137506
cycle= 14 E= -14.9331596525236  delta_E= -0.000426  |g|= 0.58  |ddm|= 0.00223
  HOMO = 499.155755879401  LUMO = 999.43855473988
cycle= 15 E= -14.9335880065741  delta_E= -0.000428  |g|= 0.578  |ddm|= 0.00241
  HOMO = 499.148897273019  LUMO = 999.432557139758
cycle= 16 E= -14.9340170523847  delta_E= -0.000429  |g|= 0.577  |ddm|= 0.00228
  HOMO = 499.149635297239  LUMO = 999.433285941279
cycle= 17 E= -14.9344431575504  delta_E= -0.000426  |g|= 0.575  |ddm|= 0.00224
  HOMO = 499.153199499175  LUMO = 999.435384550584
cycle= 18 E= -14.9348641185063  delta_E= -0.000421  |g|= 0.573  |ddm|= 0.00243
  HOMO = 499.152864267605  LUMO = 999.435373707673
cycle= 19 E= -14.9352828868657  delta_E= -0.000419  |g|= 0.572  |ddm|= 0.0024
  HOMO = 499.161990222686  LUMO = 999.44297359819
cycle= 20 E= -14.9356938495965  delta_E= -0.000411  |g|= 0.57  |ddm|= 0.0025
  HOMO = 499.159068656927  LUMO = 999.440856724316
cycle= 21 E= -14.9361064871353  delta_E= -0.000413  |g|= 0.569  |ddm|= 0.00251
  HOMO = 499.159956786587  LUMO = 999.441684776435
cycle= 22 E= -14.9365149930434  delta_E= -0.000409  |g|= 0.567  |ddm|= 0.00249
  HOMO = 499.158932406494  LUMO = 999.440890756844
cycle= 23 E= -14.9369212525382  delta_E= -0.000406  |g|= 0.566  |ddm|= 0.00242
  HOMO = 499.156071664228  LUMO = 999.439334919189
cycle= 24 E= -14.9373272685263  delta_E= -0.000406  |g|= 0.564  |ddm|= 0.00245
  HOMO = 499.155784579477  LUMO = 999.439018428193
cycle= 25 E= -14.9377305178289  delta_E= -0.000403  |g|= 0.563  |ddm|= 0.00231
  HOMO = 499.158101038829  LUMO = 999.440844649762
cycle= 26 E= -14.9381281731528  delta_E= -0.000398  |g|= 0.561  |ddm|= 0.00222
  HOMO = 499.155712233877  LUMO = 999.43909399117
cycle= 27 E= -14.9385217996584  delta_E= -0.000394  |g|= 0.56  |ddm|= 0.002
  HOMO = 499.138435806845  LUMO = 999.425856375318
cycle= 28 E= -14.938919711674  delta_E= -0.000398  |g|= 0.558  |ddm|= 0.00201
  HOMO = 499.147136806122  LUMO = 999.432792273848
cycle= 29 E= -14.9393143494371  delta_E= -0.000395  |g|= 0.557  |ddm|= 0.00203
  HOMO = 499.14590834576  LUMO = 999.431890506598
cycle= 30 E= -14.9397075086242  delta_E= -0.000393  |g|= 0.555  |ddm|= 0.00201
  HOMO = 499.152830602808  LUMO = 999.437934561526
cycle= 31 E= -14.9400938903247  delta_E= -0.000386  |g|= 0.554  |ddm|= 0.00201
  HOMO = 499.152457507144  LUMO = 999.437638817711
cycle= 32 E= -14.9404775337131  delta_E= -0.000384  |g|= 0.552  |ddm|= 0.00202
  HOMO = 499.147981042447  LUMO = 999.433815785358
cycle= 33 E= -14.9408607251649  delta_E= -0.000383  |g|= 0.551  |ddm|= 0.00198
  HOMO = 499.147086589148  LUMO = 999.433773172111
cycle= 34 E= -14.9412460880079  delta_E= -0.000385  |g|= 0.549  |ddm|= 0.00235
  HOMO = 499.136207735513  LUMO = 999.424957038721
cycle= 35 E= -14.941631459356  delta_E= -0.000385  |g|= 0.548  |ddm|= 0.00221
  HOMO = 499.135692213253  LUMO = 999.425327759866
cycle= 36 E= -14.9420143680349  delta_E= -0.000383  |g|= 0.546  |ddm|= 0.0021
  HOMO = 499.14390963255  LUMO = 999.432480667156
cycle= 37 E= -14.9423871877523  delta_E= -0.000373  |g|= 0.545  |ddm|= 0.00217
  HOMO = 499.134466108175  LUMO = 999.424384736418
cycle= 38 E= -14.9427642477109  delta_E= -0.000377  |g|= 0.543  |ddm|= 0.00207
  HOMO = 499.133609686597  LUMO = 999.423771509215
cycle= 39 E= -14.943139314692  delta_E= -0.000375  |g|= 0.542  |ddm|= 0.00206
  HOMO = 499.138022735182  LUMO = 999.427879588352
cycle= 40 E= -14.9435105591009  delta_E= -0.000371  |g|= 0.54  |ddm|= 0.00205
  HOMO = 499.135423944195  LUMO = 999.425940294616
cycle= 41 E= -14.9438812477137  delta_E= -0.000371  |g|= 0.539  |ddm|= 0.0019
  HOMO = 499.137031325037  LUMO = 999.427630100482
cycle= 42 E= -14.9442512089135  delta_E= -0.00037  |g|= 0.537  |ddm|= 0.00209
  HOMO = 499.141983465688  LUMO = 999.43102975897
cycle= 43 E= -14.9446173787194  delta_E= -0.000366  |g|= 0.536  |ddm|= 0.00218
  HOMO = 499.142337486712  LUMO = 999.431415127317
cycle= 44 E= -14.9449811258023  delta_E= -0.000364  |g|= 0.534  |ddm|= 0.00217
  HOMO = 499.15179594489  LUMO = 999.439499980658
cycle= 45 E= -14.9453359550052  delta_E= -0.000355  |g|= 0.533  |ddm|= 0.00203
  HOMO = 499.165069424199  LUMO = 999.448521529154
cycle= 46 E= -14.9456819278211  delta_E= -0.000346  |g|= 0.532  |ddm|= 0.00215
  HOMO = 499.169132737159  LUMO = 999.451006602733
cycle= 47 E= -14.9460231146536  delta_E= -0.000341  |g|= 0.53  |ddm|= 0.00214
  HOMO = 499.169903572202  LUMO = 999.452042034048
cycle= 48 E= -14.9463621031482  delta_E= -0.000339  |g|= 0.529  |ddm|= 0.00213
  HOMO = 499.16761650124  LUMO = 999.450550018292
cycle= 49 E= -14.9466997580768  delta_E= -0.000338  |g|= 0.528  |ddm|= 0.00198
  HOMO = 499.167604048967  LUMO = 999.450454169618
cycle= 50 E= -14.9470388289177  delta_E= -0.000339  |g|= 0.526  |ddm|= 0.00236
  HOMO = -1.01593454434256  LUMO = -0.682837441403834
Extra cycle  E= -15.0247207346926  delta_E= -0.0777  |g|= 0.132  |ddm|= 0.779
SCF not converged.
SCF energy = -15.0247207346926 after 50 cycles
**** MO energy ****
                Roothaan           | alpha              | beta
MO #1   energy= -1.95887212927133  | -2.04295988652549  | -1.87478437266661  occ= 2
MO #2   energy= -1.2992169165016   | -1.32031941770827  | -1.27811441529493  occ= 2
MO #3   energy= -1.01593454434256  | -1.40925108008206  | -0.556155164688466 occ= 1
MO #4   energy= -0.682837441403834 | -0.703116699354675 | -0.662558183452988 occ= 0
MO #5   energy= -0.125007121592025 | -0.129959747661687 | -0.120054495580792 occ= 0
MO #6   energy= -0.0924845518075204 | -0.093312050682664 | -0.0916570529323685 occ= 0
MO #7   energy= -0.0883703871943393 | -0.0890336440246367 | -0.0877071303640406 occ= 0
MO #8   energy= -0.083044556131243 | -0.0965523530369684 | -0.0891555838588374 occ= 0
MO #9   energy= 0.142404954201794  | 0.137592231535572  | 0.147217676882704  occ= 0
MO #10  energy= 0.143193628589837  | 0.136546574022057  | 0.149840683157615  occ= 0
MO #11  energy= 0.149590383975757  | 0.148688555073056  | 0.150492212878465  occ= 0
MO #12  energy= 0.156071480823833  | 0.149420125005806  | 0.162722836641858  occ= 0
MO #13  energy= 0.157260644628131  | 0.152568573367757  | 0.161952715906974  occ= 0
MO #14  energy= 0.2481850634249    | 0.244844181091339  | 0.25152594575846   occ= 0
MO #15  energy= 0.251412941345507  | 0.248482506313566  | 0.254343376377446  occ= 0
MO #16  energy= 0.26224835312773   | 0.223585790072968  | 0.26383367740368   occ= 0
MO #17  energy= 0.593967226969531  | 0.581697217362409  | 0.606237236625363  occ= 0
MO #18  energy= 0.885517696421007  | 0.881114351651163  | 0.889921041190859  occ= 0
MO #19  energy= 0.88578766675866   | 0.88113947950482   | 0.890456186264721  occ= 0
MO #20  energy= 0.898843919229757  | 0.897234624292656  | 0.900453214166858  occ= 0
MO #21  energy= 0.902724514247751  | 0.899254312391371  | 0.90619471610413   occ= 0
MO #22  energy= 0.907171967106943  | 0.905694089353827  | 0.908649844860066  occ= 0
MO #23  energy= 0.919800527698557  | 0.915242539456122  | 0.924244604049735  occ= 0
MO #24  energy= 0.920149074694333  | 0.915971133928129  | 0.924327015460541  occ= 0
MO #25  energy= 0.999690851115727  | 0.980535257763728  | 1.01884644470879   occ= 0
MO #26  energy= 1.00120280776885   | 0.974325802910753  | 1.02807981262695   occ= 0
MO #27  energy= 1.01195603507528   | 1.00806189427006   | 1.01585017588049   occ= 0
MO #28  energy= 1.02380828776225   | 0.996875097421732  | 1.05074147810276   occ= 0
MO #29  energy= 1.02567219336891   | 1.00613981516217   | 1.04520457185347   occ= 0
MO #30  energy= 1.72523085439252   | 1.717460142498     | 1.73300156628701   occ= 0
MO #31  energy= 1.73978416488934   | 1.68338552261388   | 1.78680723830337   occ= 0
MO #32  energy= 1.75038035559876   | 1.74285809241231   | 1.75790261878521   occ= 0
MO #33  energy= 3.0601966315066    | 3.05337770371823   | 3.06701555929661   occ= 0
MO #34  energy= 3.06028584345228   | 3.05338577868653   | 3.06718590821801   occ= 0
MO #35  energy= 3.08306153785977   | 3.07933605283641   | 3.08678702288313   occ= 0
MO #36  energy= 3.08513804240357   | 3.08022629390436   | 3.09004979090279   occ= 0
MO #37  energy= 3.09641287334262   | 3.09454300736699   | 3.09828273931839   occ= 0
MO #38  energy= 3.10689519365306   | 3.10212469291095   | 3.11166569439517   occ= 0
MO #39  energy= 3.10935390608993   | 3.10593970480825   | 3.11276810737161   occ= 0
MO #40  energy= 3.13169414340158   | 3.12510771573204   | 3.13828057107112   occ= 0
MO #41  energy= 3.1318125753261    | 3.12533250606875   | 3.1382926445833    occ= 0
MO #42  energy= 3.31574813463876   | 3.30002433016428   | 3.33147193911328   occ= 0
MO #43  energy= 3.31640202066049   | 3.29972663309893   | 3.33310593470864   occ= 0
MO #44  energy= 3.3454910106997    | 3.33972881119215   | 3.35125321020726   occ= 0
MO #45  energy= 3.3546047981136    | 3.34208698405418   | 3.36712261217302   occ= 0
MO #46  energy= 3.36431016860571   | 3.35880367908902   | 3.36981665812242   occ= 0
MO #47  energy= 3.39328988617722   | 3.37684657917891   | 3.4095226700599    occ= 0
MO #48  energy= 3.3940384232858    | 3.37878847843086   | 3.40928836814075   occ= 0
MO #49  energy= 3.52288318185673   | 3.49484865382779   | 3.55091771085558   occ= 0
MO #50  energy= 3.52705386852488   | 3.48832144367248   | 3.56578629337728   occ= 0
MO #51  energy= 3.55125545803767   | 3.54502776190521   | 3.55748315417014   occ= 0
MO #52  energy= 3.57659763699395   | 3.53820863785373   | 3.61498663613416   occ= 0
MO #53  energy= 3.57990890853155   | 3.55205874120215   | 3.6077590768303    occ= 0
MO #54  energy= 3.83215868827931   | 3.80923713080314   | 3.85508024594394   occ= 0
MO #55  energy= 8.08895092036867   | 8.08070732348673   | 8.09719451725057   occ= 0
MO #56  energy= 8.12351410117984   | 8.07366929102691   | 8.17326712717384   occ= 0
MO #57  energy= 8.15779965949786   | 8.14957747145569   | 8.16602184753993   occ= 0
MO #58  energy= 9.6983181038157    | 9.683074041334     | 9.71356216631383   occ= 0
MO #59  energy= 9.69850339625197   | 9.68305477579117   | 9.71395201671272   occ= 0
MO #60  energy= 9.73995992299385   | 9.73176666483921   | 9.74815318114845   occ= 0
MO #61  energy= 9.74407741340642   | 9.73306020113659   | 9.75509462567617   occ= 0
MO #62  energy= 9.76422299423306   | 9.75996578247454   | 9.76848020599586   occ= 0
MO #63  energy= 9.78421402324131   | 9.77331870029427   | 9.79510934618834   occ= 0
MO #64  energy= 9.78844956013759   | 9.78044493181698   | 9.79645418845818   occ= 0
MO #65  energy= 9.83022743790476   | 9.81513440137317   | 9.84532047443633   occ= 0
MO #66  energy= 9.83042302814224   | 9.81554267909386   | 9.84530337720186   occ= 0
MO #67  energy= 10.5491630011011   | 10.5259188681583   | 10.5724071340439   occ= 0
MO #68  energy= 10.5503136477624   | 10.5254785077389   | 10.5751581181675   occ= 0
MO #69  energy= 10.594853661406    | 10.5863475335208   | 10.6033597892911   occ= 0
MO #70  energy= 10.6094922604434   | 10.5908316351257   | 10.6281528857611   occ= 0
MO #71  energy= 10.6240609295031   | 10.6156240837323   | 10.6324977752739   occ= 0
MO #72  energy= 10.6694928762516   | 10.6450020627825   | 10.6939505046432   occ= 0
MO #73  energy= 10.6706798443768   | 10.6477860631595   | 10.6935736255941   occ= 0
MO #74  energy= 11.4498197843629   | 11.4265048255063   | 11.4731347439134   occ= 0
MO #75  energy= 11.4558785825144   | 11.42394651942     | 11.4878106456088   occ= 0
MO #76  energy= 11.4946738611143   | 11.4889496917443   | 11.5003980304844   occ= 0
MO #77  energy= 11.5346470817109   | 11.5029651985331   | 11.5663289648888   occ= 0
MO #78  energy= 11.5407619501825   | 11.5176793155045   | 11.5638445855918   occ= 0
MO #79  energy= 18.5734608722945   | 18.5571891758326   | 18.5897325687591   occ= 0
 ** Mulliken pop on meta-lowdin orthogonal AOs  **
 ** Mulliken pop  **
pop of  0O 2s        1.99139
pop of  0O 3s        0.00217
pop of  0O 4s        0.00017
pop of  0O 5s        0.00347
pop of  0O 6s        0.00272
pop of  0O 2px       1.96882
pop of  0O 2py       0.81932
pop of  0O 2pz       0.14804
pop of  0O 3px       0.00396
pop of  0O 3py       0.00357
pop of  0O 3pz       0.00064
pop of  0O 4px       0.00315
pop of  0O 4py       0.00198
pop of  0O 4pz       0.00036
pop of  0O 5px       0.01954
pop of  0O 5py       0.01747
pop of  0O 5pz       0.00316
pop of  0O 6px       0.00441
pop of  0O 6py       0.00456
pop of  0O 6pz       0.00082
pop of  0O 3dxy      0.00000
pop of  0O 3dyz      0.00000
pop of  0O 3dz^2     0.00000
pop of  0O 3dxz      0.00000
pop of  0O 3dx2-y2    0.00000
pop of  0O 4dxy      0.00000
pop of  0O 4dyz      0.00000
pop of  0O 4dz^2     0.00000
pop of  0O 4dxz      0.00000
pop of  0O 4dx2-y2    0.00000
pop of  0O 5dxy      0.00000
pop of  0O 5dyz      0.00001
pop of  0O 5dz^2     0.00002
pop of  0O 5dxz      0.00000
pop of  0O 5dx2-y2    0.00001
pop of  0O 6dxy      0.00000
pop of  0O 6dyz      0.00000
pop of  0O 6dz^2     0.00001
pop of  0O 6dxz      0.00000
pop of  0O 6dx2-y2    0.00001
pop of  0O 4fy^3     0.00002
pop of  0O 4fxyz     0.00000
pop of  0O 4fyz^2    0.00000
pop of  0O 4fz^3     0.00000
pop of  0O 4fxz^2    0.00003
pop of  0O 4fzx^2    0.00000
pop of  0O 4fx^3     0.00001
pop of  0O 5fy^3     0.00003
pop of  0O 5fxyz     0.00001
pop of  0O 5fyz^2    0.00000
pop of  0O 5fz^3     0.00000
pop of  0O 5fxz^2    0.00004
pop of  0O 5fzx^2    0.00000
pop of  0O 5fx^3     0.00002
pop of  0O 6fy^3     0.00001
pop of  0O 6fxyz     0.00000
pop of  0O 6fyz^2    0.00000
pop of  0O 6fz^3     0.00000
pop of  0O 6fxz^2    0.00001
pop of  0O 6fzx^2    0.00000
pop of  0O 6fx^3     0.00000
pop of  0O 5g-4      0.00000
pop of  0O 5g-3      0.00000
pop of  0O 5g-2      0.00000
pop of  0O 5g-1      0.00000
pop of  0O 5g 0      0.00000
pop of  0O 5g 1      0.00000
pop of  0O 5g 2      0.00000
pop of  0O 5g 3      0.00000
pop of  0O 5g 4      0.00000
pop of  0O 6g-4      0.00000
pop of  0O 6g-3      0.00000
pop of  0O 6g-2      0.00000
pop of  0O 6g-1      0.00000
pop of  0O 6g 0      0.00000
pop of  0O 6g 1      0.00000
pop of  0O 6g 2      0.00000
pop of  0O 6g 3      0.00000
pop of  0O 6g 4      0.00000
 ** Mulliken atomic charges  **
charge of  0O =      1.00000

******** <class 'pyscf.mcscf.mc1step.CASSCF'> flags ********
CAS (2e+1e, 3o), ncore = 1, nvir = 75
max_cycle_macro = 50
max_cycle_micro = 4
conv_tol = 1e-07
conv_tol_grad = None
orbital rotation max_stepsize = 0.02
augmented hessian ah_max_cycle = 30
augmented hessian ah_conv_tol = 1e-12
augmented hessian ah_linear dependence = 1e-14
augmented hessian ah_level shift = 0
augmented hessian ah_start_tol = 2.5
augmented hessian ah_start_cycle = 3
augmented hessian ah_grad_trust_region = 3
kf_trust_region = 3
kf_interval = 4
ci_response_space = 4
ci_grad_trust_region = 3
with_dep4 0
natorb = False
canonicalization = True
chkfile = ./scratch/129229/tmpZTHzRu
max_memory 4000 MB (current use 242 MB)
internal_rotation = False

******** SHCI flags ********
executable             = /home/bamu3429/softwares/dice/Dice
mpiprefix              = mpirun -np 28
scratchDirectory       = ./scratch/129229
integralFile           = ./FCIDUMP
configFile             = ./input.dat
outputFile             = ./output.dat
maxIter                = 6
sweep_iter             = []
sweep_epsilon          = []
nPTiter                = 0
Stochastic             = True
fullrestart            = False
restart                = False
num_thrds              = 12
memory                 = None

CASCI E = -15.0599736577537  S^2 = 0.7500000
Set conv_tol_grad to 0.000316228
macro iter 1 (14 JK  4 micro), CASSCF E = -15.074550631325  dE = -0.014576974  S^2 = 0.7500000
               |grad[o]|=0.189  |grad[c]|= None  |ddm|=0.263
macro iter 2 (6 JK  2 micro), CASSCF E = -15.0745527648392  dE = -2.1335142e-06  S^2 = 0.7500000
               |grad[o]|=0.00262  |grad[c]|= None  |ddm|=0.00167
macro iter 3 (1 JK  1 micro), CASSCF E = -15.0745527648392  dE = 0  S^2 = 0.7500000
               |grad[o]|=5.45e-06  |grad[c]|= None  |ddm|=    0
1-step CASSCF converged in 3 macro (21 JK 7 micro) steps
CASSCF canonicalization
CASSCF energy = -15.0745527648392


--------------------------------------------------
                 ICMPSPT CALCULATION              
--------------------------------------------------

Perturbation type: MRLCC
With fully internally contracted scheme
With third order correction

Preparing necessary RDMs
......production of RDMs took       1.18 sec
Reading binary 4RDM from DICE
......reading the RDM took          0.01 sec

(GOOD) Trace 4RDM:      0.0 =    3*    2*    1*    0
(BAD)  Trace 3RDM:      nan!=    3*    2*    1
(BAD)  Trace 2RDM:      nan!=    3*    2
(BAD)  Trace 1RDM:      nan!=    3

Producing the integrals
......production of INT took      28.14 sec

Energy_core =  -8.91189775188
Energy      =  nan

WARNING: Have to use natural orbitals from CAASCF
         offdiagonal elements: 0.463431665552

Basic ingredients written to int/
......savings of INGREDIENTS took      20.25 sec

terminate called after throwing an instance of 'std::runtime_error'
  what():  No convergence!
/bin/sh: line 1: 138399 Aborted                 /projects/bamu3429/softwares/icpt/icpt MRLCC_CCVV.inp > MRLCC_CCVV.out
Second-order:
Traceback (most recent call last):
  File "mrpt.py", line 54, in <module>
    do_dm4=True)
  File "/projects/bamu3429/softwares/pyscf_uptodate/pyscf/icmpspt/icmpspt.py", line 1375, in icmpspt
    cumulantE4=cumulantE4, df=df, no_handcoded_E3=no_handcoded_E3)
  File "/projects/bamu3429/softwares/pyscf_uptodate/pyscf/icmpspt/icmpspt.py", line 689, in executeMRLCC
    output = check_call("%s  %s  %s > %s"%(mpiprefix, executable, infile, outfile), shell=True)
  File "/curc/sw/python/2.7.11/lib/python2.7/subprocess.py", line 540, in check_call
    raise CalledProcessError(retcode, cmd)
subprocess.CalledProcessError: Command '  /projects/bamu3429/softwares/icpt/icpt  MRLCC_CCVV.inp > MRLCC_CCVV.out' returned non-zero exit status 134
