 &FCI NORB=6 ,NELEC=4 ,MS2=4,
  ORBSYM=1,1,1,1,1,1,
  ISYM=1,
 &END
  6.877185597222e-01    1  1  1  1
  2.603457690565e-02    2  1  2  1
  6.295838265103e-01    2  2  1  1
  6.757142649841e-01    2  2  2  2
 -5.637582977019e-11    3  1  2  1
  2.603457694941e-02    3  1  3  1
 -1.035216549141e-09    3  2  1  1
 -1.094908180824e-09    3  2  2  2
  2.576031262421e-02    3  2  3  2
  6.295838273470e-01    3  3  1  1
  6.241936406496e-01    3  3  2  2
 -1.094907472793e-09    3  3  3  2
  6.757142668119e-01    3  3  3  3
  4.541052927115e-11    4  1  1  1
  1.833698051649e-03    4  1  2  2
 -1.256690081270e-02    4  1  3  2
 -1.833697946640e-03    4  1  3  3
  2.808194059800e-02    4  1  4  1
 -1.072137566511e-03    4  2  2  1
  7.347690751287e-03    4  2  3  1
  1.874167650966e-02    4  2  4  2
  7.347691258226e-03    4  3  2  1
  1.072137534557e-03    4  3  3  1
 -8.536409597436e-11    4  3  4  2
  1.874167717241e-02    4  3  4  3
  6.164553760925e-01    4  4  1  1
  6.366994810373e-01    4  4  2  2
 -9.164877796732e-10    4  4  3  2
  6.366994807971e-01    4  4  3  3
  1.592597324419e-11    4  4  4  1
  6.710234776164e-01    4  4  4  4
  3.984644091076e-09    5  1  1  1
 -5.558592134914e-04    5  1  2  2
  3.809499794419e-03    5  1  3  2
  5.558662535789e-04    5  1  3  3
 -4.789144076302e-03    5  1  4  1
  3.391015395197e-09    5  1  4  4
  7.544592650501e-03    5  1  5  1
 -3.500758367708e-04    5  2  2  1
  2.399183667174e-03    5  2  3  1
  9.772945707474e-04    5  2  4  2
  4.176596129013e-10    5  2  4  3
  6.860886953591e-03    5  2  5  2
  2.399176140764e-03    5  3  2  1
  3.500762681337e-04    5  3  3  1
  4.092284447849e-10    5  3  4  2
  9.772899592129e-04    5  3  4  3
  9.738674698861e-11    5  3  5  2
  6.860883735375e-03    5  3  5  3
 -2.754777502027e-02    5  4  1  1
 -2.394044556436e-02    5  4  2  2
 -6.055066940529e-10    5  4  3  2
 -2.394043744802e-02    5  4  3  3
  1.883488793575e-10    5  4  4  1
 -2.352566117872e-02    5  4  4  4
 -5.547424199903e-11    5  4  5  1
  8.105170412618e-03    5  4  5  4
  2.868674546447e-01    5  5  1  1
  2.853382999749e-01    5  5  2  2
 -1.023024155191e-10    5  5  3  2
  2.853382945878e-01    5  5  3  3
  3.924587666054e-10    5  5  4  1
  2.844023470222e-01    5  5  4  4
 -1.811447884669e-10    5  5  5  1
 -5.810017673141e-03    5  5  5  4
  2.221525688051e-01    5  5  5  5
  2.303012810549e-07    6  1  1  1
 -2.094880506879e-08    6  1  2  1
  2.051081118150e-07    6  1  2  2
 -1.938717693573e-08    6  1  3  1
  5.380310518919e-11    6  1  3  2
  2.051225361685e-07    6  1  3  3
 -1.097733291345e-10    6  1  4  1
 -3.573695383610e-09    6  1  4  2
 -5.205614677261e-09    6  1  4  3
  2.004214215235e-07    6  1  4  4
 -6.112135871999e-12    6  1  5  1
  9.221165511237e-09    6  1  5  2
  1.344328859531e-08    6  1  5  3
 -6.497883577856e-09    6  1  5  4
  1.681230653482e-08    6  1  5  5
  4.207381213969e-03    6  1  6  1
 -4.109720479458e-07    6  2  1  1
  1.004866444671e-08    6  2  2  1
 -4.428148886916e-07    6  2  2  2
 -7.495368253493e-08    6  2  3  1
 -1.845072146936e-08    6  2  3  2
 -4.029816621311e-07    6  2  3  3
  8.150857709016e-09    6  2  4  1
 -4.554652929109e-08    6  2  4  2
 -4.422693253312e-09    6  2  4  3
 -4.090392066321e-07    6  2  4  4
  8.661306125067e-09    6  2  5  1
  7.566674131203e-09    6  2  5  2
 -4.893390796969e-09    6  2  5  3
  3.396472401676e-08    6  2  5  4
 -3.648802858856e-08    6  2  5  5
  2.626144820556e-03    6  2  6  2
 -3.803004941465e-07    6  3  1  1
  7.494020882156e-08    6  3  2  1
 -3.729102965224e-07    6  3  2  2
  1.004595751331e-08    6  3  3  1
 -1.993380503081e-08    6  3  3  2
 -4.097677590150e-07    6  3  3  3
  1.186421631596e-08    6  3  4  1
 -4.461592844970e-09    6  3  4  2
  4.545755105174e-08    6  3  4  3
 -3.785140872012e-07    6  3  4  4
  1.262397715884e-08    6  3  5  1
 -5.485254385330e-09    6  3  5  2
 -7.441710564792e-09    6  3  5  3
  3.142862674302e-08    6  3  5  4
 -3.377416689741e-08    6  3  5  5
  1.753787660487e-03    6  3  6  2
  2.333652961609e-03    6  3  6  3
 -1.552821133681e-09    6  4  1  1
 -2.838788878434e-09    6  4  2  1
  8.211143405964e-08    6  4  2  2
 -4.135704726502e-09    6  4  3  1
  6.608546742102e-09    6  4  3  2
 -8.522673072278e-08    6  4  3  3
  1.224854575471e-08    6  4  4  1
 -1.261939783783e-08    6  4  4  2
 -1.167907241069e-08    6  4  4  3
 -1.624918705471e-09    6  4  4  4
  5.242113183811e-09    6  4  5  1
  9.662526877779e-09    6  4  5  2
  8.939782895474e-09    6  4  5  3
  2.053385370044e-10    6  4  5  4
 -1.171538371331e-10    6  4  5  5
 -1.487236303076e-03    6  4  6  1
  1.448676415566e-03    6  4  6  4
  6.600210680054e-10    6  5  1  1
  1.818151516812e-08    6  5  2  1
  1.824107183511e-08    6  5  2  2
  2.649220896153e-08    6  5  3  1
 -9.350971024812e-09    6  5  3  2
 -1.663441585762e-08    6  5  3  3
  1.205516665804e-08    6  5  4  1
  1.635341282254e-08    6  5  4  2
  1.513229028372e-08    6  5  4  3
  8.742718929602e-10    6  5  4  4
 -1.174398564655e-08    6  5  5  1
  1.749050760690e-08    6  5  5  2
  1.619378936085e-08    6  5  5  3
  3.325480089010e-11    6  5  5  4
  3.596328055607e-10    6  5  5  5
  7.620062125817e-03    6  5  6  1
 -2.484750993440e-03    6  5  6  4
  3.359055379285e-02    6  5  6  5
  2.028610805145e-01    6  6  1  1
  1.998851159070e-01    6  6  2  2
  2.853070967969e-03    6  6  3  2
  1.993945006650e-01    6  6  3  3
 -2.841153369098e-03    6  6  4  1
  1.979744154223e-01    6  6  4  4
  4.388442581514e-03    6  6  5  1
 -4.353913217193e-03    6  6  5  4
  1.740554569802e-01    6  6  5  5
 -6.544863649560e-09    6  6  6  1
  1.115286037772e-08    6  6  6  2
  1.023222443893e-08    6  6  6  3
  8.987588482510e-09    6  6  6  4
 -4.658494041814e-08    6  6  6  5
  1.593742692271e-01    6  6  6  6
 -2.411751479287e+00    1  1  0  0
 -2.398157503149e+00    2  2  0  0
  2.961922711722e-09    3  2  0  0
 -2.398157505494e+00    3  3  0  0
 -2.035536288061e-10    4  1  0  0
 -2.388206802971e+00    4  4  0  0
 -9.445432151583e-09    5  1  0  0
  7.802078765013e-02    5  4  0  0
 -1.318227853184e+00    5  5  0  0
 -5.794253421394e-07    6  1  0  0
  1.170240880138e-06    6  2  0  0
  1.082904529889e-06    6  3  0  0
  4.422340717055e-09    6  4  0  0
 -2.885031091939e-09    6  5  0  0
 -8.999438157182e-01    6  6  0  0
    -64.509964337484   0  0  0  0
