#INFO: **** input file is /projects/bamu3429/BENCHMARK/fresh_atoms/MRPT/vdz/atoms/V_1/mrpt.py ****
import json
from pyscf import gto,scf,mcscf, fci, lo, ci, cc
from pyscf.scf import ROHF, UHF,ROKS
import numpy as np
import pandas as pd

# THIS IS WERE IT STARTS ====================================

df=json.load(open("../../../trail.json"))

spins={'Sc':1, 'Ti':2, 'V':3, 'Cr':6, 'Mn':5, 'Fe':4, 'Cu':1}

nd={'Sc':(1,0), 'Ti':(2,0), 'V':(3,0), 'Cr':(5,0), 'Mn':(5,0), 'Fe':(5,1), 'Cu':(5,5)}

cas={'Sc':3, 'Ti':4, 'V':5, 'Cr':6, 'Mn':7, 'Fe':8, 'Cu':11}

datacsv={}
for nm in ['atom','charge','method','basis','pseudopotential','hf',
           'totalenergy','totalenergy-stocherr','totalenergy-syserr']:
  datacsv[nm]=[]

basis='vdz'
el='V'
charge=1

mol=gto.Mole()
mol.ecp={}
mol.basis={}
mol.ecp[el]=gto.basis.parse_ecp(df[el]['ecp'])
mol.basis[el]=gto.basis.parse(df[el][basis])
mol.charge=charge
if el == 'Cr' or el == 'Cu':
  mol.spin=spins[el]-charge
else:
  mol.spin=spins[el]+charge
mol.build(atom="%s 0. 0. 0."%el,verbose=4)

m=ROHF(mol)
m.level_shift=1000.0
dm=m.from_chk("../../../../HF/atoms/"+el+basis+str(charge)+".chk")
hf=m.kernel(dm)
m.analyze()

from pyscf.shciscf import shci
mc = shci.SHCISCF(m, 6, cas[el]-charge)
#mc.fcisolver.conv_tol = 1e-14
mc.fcisolver.mpiprefix="mpirun -np 28"
mc.fcisolver.num_thrds=12
mc.verbose = 4
cas=mc.kernel()[0]
 
from pyscf.icmpspt import icmpspt
pt=icmpspt.icmpspt(mc,rdmM=500, PTM=1000,\
                          pttype="MRLCC",\
                          third_order=True,\
                          fully_ic=True,\
                          do_dm4=True)

datacsv['atom'].append(el)
datacsv['charge'].append(charge)
datacsv['method'].append('MRPT')
datacsv['basis'].append(basis)
datacsv['pseudopotential'].append('trail')
datacsv['hf'].append(hf)
datacsv['totalenergy'].append(cas+pt)
datacsv['totalenergy-stocherr'].append(0.0)
datacsv['totalenergy-syserr'].append(0.0)
pd.DataFrame(datacsv).to_csv(el+".csv",index=False)

#INFO: ******************** input file end ********************


System: ('Linux', 'bnode0304.rc.int.colorado.edu', '3.10.0-514.41.1.el7.x86_64', '#1 SMP Wed Jan 17 10:26:16 EST 2018', 'x86_64', 'x86_64')  Threads 28
Python 2.7.11 (default, Mar 22 2016, 01:42:54) 
[GCC Intel(R) C++ gcc 4.8 mode]
numpy 1.11.1  scipy 0.17.1
Date: Thu Mar 29 12:13:41 2018
PySCF version 1.4
PySCF path  /projects/bamu3429/softwares/pyscf_uptodate/pyscf
GIT ORIG_HEAD e2292e6edec2b0e0024c21b81de03db1d7bd4121
GIT HEAD      ref: refs/heads/master
GIT master branch  f3591ef22170896a4cdc2aadaa6f5da388ffcadb

[INPUT] VERBOSE 4
[INPUT] num atoms = 1
[INPUT] num electrons = 12
[INPUT] charge = 1
[INPUT] spin (= nelec alpha-beta = 2S) = 4
[INPUT] symmetry False subgroup None
[INPUT]  1 V      0.000000000000   0.000000000000   0.000000000000 AA    0.000000000000   0.000000000000   0.000000000000 Bohr
[INPUT] ---------------- BASIS SET ---------------- 
[INPUT] l, kappa, [nprim/nctr], expnt,             c_1 c_2 ...
[INPUT] V
[INPUT] 0    0    [12   /1   ]  33.51168105       0.006845
                                15.38532624       -0.214557
                                9.96227367        1.392425
                                8.05943355        -1.485929
                                3.6960334         -0.026725
                                1.49220279        0.457681
                                0.84622253        0.506886
                                0.43855031        0.249453
                                0.2102388         0.007109
                                0.1022422         0.007055
                                0.04832462        -0.000443
                                0.02406855        0.001278
[INPUT] 0    0    [12   /1   ]  33.51168105       -0.001211
                                15.38532624       0.04697
                                9.96227367        -0.329808
                                8.05943355        0.363635
                                3.6960334         0.005985
                                1.49220279        -0.140857
                                0.84622253        -0.203846
                                0.43855031        -0.200776
                                0.2102388         0.022081
                                0.1022422         0.429765
                                0.04832462        0.534383
                                0.02406855        0.187984
[INPUT] 0    0    [12   /1   ]  33.51168105       -0.006871
                                15.38532624       0.226397
                                9.96227367        -1.640881
                                8.05943355        1.900984
                                3.6960334         -0.211293
                                1.49220279        -1.475616
                                0.84622253        0.220931
                                0.43855031        0.532517
                                0.2102388         0.907357
                                0.1022422         0.106097
                                0.04832462        -0.528638
                                0.02406855        -0.33681
[INPUT] 0    0    [1    /1   ]  0.02406855           1
[INPUT] 0    0    [1    /1   ]  0.01198757           1
[INPUT] 1    0    [12   /1   ]  49.83779697       0.000413
                                25.60370921       -0.003442
                                10.40982442       0.097153
                                7.71483683        -0.206888
                                4.49868206        0.083281
                                2.48212838        0.186621
                                1.4387019         0.395144
                                0.72090362        0.377883
                                0.3443302         0.134629
                                0.13162828        0.011074
                                0.05284968        -0.000426
                                0.02121951        0.000256
[INPUT] 1    0    [12   /1   ]  49.83779697       -2.9e-05
                                25.60370921       0.000502
                                10.40982442       -0.020934
                                7.71483683        0.047431
                                4.49868206        -0.020701
                                2.48212838        -0.057583
                                1.4387019         -0.106451
                                0.72090362        -0.140229
                                0.3443302         0.043257
                                0.13162828        0.438687
                                0.05284968        0.536785
                                0.02121951        0.12546
[INPUT] 1    0    [12   /1   ]  49.83779697       9e-05
                                25.60370921       -0.002342
                                10.40982442       0.125465
                                7.71483683        -0.321923
                                4.49868206        0.19446
                                2.48212838        0.693755
                                1.4387019         0.323454
                                0.72090362        -0.875978
                                0.3443302         -0.540174
                                0.13162828        0.69685
                                0.05284968        0.327275
                                0.02121951        -0.009315
[INPUT] 1    0    [1    /1   ]  0.02121951           1
[INPUT] 1    0    [1    /1   ]  0.00851977           1
[INPUT] 2    0    [10   /1   ]  34.27504048       0.000678
                                16.12418185       -0.017858
                                9.59474528        0.107867
                                3.8690861         0.173949
                                1.82728072        0.26883
                                0.85799457        0.321303
                                0.38035078        0.300128
                                0.15533087        0.170792
                                0.06318167        0.035148
                                0.03734397        0.003549
[INPUT] 2    0    [10   /1   ]  34.27504048       0.000411
                                16.12418185       0.011699
                                9.59474528        -0.096988
                                3.8690861         -0.225228
                                1.82728072        -0.395141
                                0.85799457        -0.078275
                                0.38035078        0.3045
                                0.15533087        0.474064
                                0.06318167        0.20462
                                0.03734397        0.016541
[INPUT] 2    0    [1    /1   ]  0.03734397           1
[INPUT] 2    0    [1    /1   ]  0.02207241           1
[INPUT] 3    0    [1    /1   ]  1.853039             1
[INPUT] 3    0    [1    /1   ]  1.0952517            1
nuclear repulsion = 0
number of shells = 16
number of NR pGTOs = 276
number of NR cGTOs = 54
basis = {'V': [[0, [33.51168105, 0.006845], [15.38532624, -0.214557], [9.96227367, 1.392425], [8.05943355, -1.485929], [3.6960334, -0.026725], [1.49220279, 0.457681], [0.84622253, 0.506886], [0.43855031, 0.249453], [0.2102388, 0.007109], [0.1022422, 0.007055], [0.04832462, -0.000443], [0.02406855, 0.001278]], [0, [33.51168105, -0.001211], [15.38532624, 0.04697], [9.96227367, -0.329808], [8.05943355, 0.363635], [3.6960334, 0.005985], [1.49220279, -0.140857], [0.84622253, -0.203846], [0.43855031, -0.200776], [0.2102388, 0.022081], [0.1022422, 0.429765], [0.04832462, 0.534383], [0.02406855, 0.187984]], [0, [33.51168105, -0.006871], [15.38532624, 0.226397], [9.96227367, -1.640881], [8.05943355, 1.900984], [3.6960334, -0.211293], [1.49220279, -1.475616], [0.84622253, 0.220931], [0.43855031, 0.532517], [0.2102388, 0.907357], [0.1022422, 0.106097], [0.04832462, -0.528638], [0.02406855, -0.33681]], [0, [0.02406855, 1.0]], [0, [0.01198757, 1.0]], [1, [49.83779697, 0.000413], [25.60370921, -0.003442], [10.40982442, 0.097153], [7.71483683, -0.206888], [4.49868206, 0.083281], [2.48212838, 0.186621], [1.4387019, 0.395144], [0.72090362, 0.377883], [0.3443302, 0.134629], [0.13162828, 0.011074], [0.05284968, -0.000426], [0.02121951, 0.000256]], [1, [49.83779697, -2.9e-05], [25.60370921, 0.000502], [10.40982442, -0.020934], [7.71483683, 0.047431], [4.49868206, -0.020701], [2.48212838, -0.057583], [1.4387019, -0.106451], [0.72090362, -0.140229], [0.3443302, 0.043257], [0.13162828, 0.438687], [0.05284968, 0.536785], [0.02121951, 0.12546]], [1, [49.83779697, 9e-05], [25.60370921, -0.002342], [10.40982442, 0.125465], [7.71483683, -0.321923], [4.49868206, 0.19446], [2.48212838, 0.693755], [1.4387019, 0.323454], [0.72090362, -0.875978], [0.3443302, -0.540174], [0.13162828, 0.69685], [0.05284968, 0.327275], [0.02121951, -0.009315]], [1, [0.02121951, 1.0]], [1, [0.00851977, 1.0]], [2, [34.27504048, 0.000678], [16.12418185, -0.017858], [9.59474528, 0.107867], [3.8690861, 0.173949], [1.82728072, 0.26883], [0.85799457, 0.321303], [0.38035078, 0.300128], [0.15533087, 0.170792], [0.06318167, 0.035148], [0.03734397, 0.003549]], [2, [34.27504048, 0.000411], [16.12418185, 0.011699], [9.59474528, -0.096988], [3.8690861, -0.225228], [1.82728072, -0.395141], [0.85799457, -0.078275], [0.38035078, 0.3045], [0.15533087, 0.474064], [0.06318167, 0.20462], [0.03734397, 0.016541]], [2, [0.03734397, 1.0]], [2, [0.02207241, 1.0]], [3, [1.853039, 1.0]], [3, [1.0952517, 1.0]]]}
ecp = {'V': [10, [[-1, [[], [[8.85341849, 13.0]], [[14.12393489, 1867.96836466], [10.01469125, -417.2185296], [16.87739786, -6735.41034163], [17.42661229, 5248.9519915]], [[8.14766139, 115.09444037]]]], [0, [[], [], [[10.17161428, 8429.89768085], [6.62108601, -4738.0869454], [6.4407206, 3874.69004628], [11.26222343, -9817.80452096], [19.82459033, -286.16022228], [14.35299938, 2571.80634504]], []]], [1, [[], [], [[10.25117807, 40641.17869487], [10.49106006, -41559.00487832], [13.7869188, 3357.33248976], [16.29479305, -896.47755921], [7.79003518, -1904.45864373], [6.62830213, 382.3757783]], []]], [2, [[], [], [[8.601477, 4615.05527413], [10.66674565, -3671.60281242], [15.19026557, 4480.50015686], [8.06189603, -2591.12632756], [19.82232597, 2587.18683714], [18.22318105, -5431.92186158]], []]]]]}
CPU time:         3.75


******** <class 'pyscf.scf.rohf.ROHF'> flags ********
method = ROHF
initial guess = minao
damping factor = 0
level shift factor = 1000.0
DIIS = <class 'pyscf.scf.diis.CDIIS'>
DIIS start cycle = 1
DIIS space = 8
SCF tol = 1e-09
SCF gradient tol = None
max. SCF cycles = 50
direct_scf = True
direct_scf_tol = 1e-13
chkfile to save SCF result = /projects/bamu3429/BENCHMARK/fresh_atoms/MRPT/vdz/atoms/V_1/tmpgEiOES
max_memory 4000 MB (current use 114 MB)
num. doubly occ = 4  num. singly occ = 4
Set gradient conv threshold to 3.16228e-05
init E= -70.4788974431552
  HOMO = 499.806171336937  LUMO = 999.808755844773
cycle= 1 E= -70.476766967549  delta_E= 0.00213  |g|= 0.00373  |ddm|= 0.027
  HOMO = 499.806202198016  LUMO = 999.80883885481
cycle= 2 E= -70.4767670030673  delta_E= -3.55e-08  |g|= 0.00372  |ddm|= 9.7e-06
  HOMO = 499.805814131174  LUMO = 999.808789529197
cycle= 3 E= -70.4767670401019  delta_E= -3.7e-08  |g|= 0.0037  |ddm|= 1.01e-05
  HOMO = 499.805886932857  LUMO = 999.808794884117
cycle= 4 E= -70.4767670774273  delta_E= -3.73e-08  |g|= 0.00369  |ddm|= 1.02e-05
  HOMO = 499.80587761744  LUMO = 999.808793929898
cycle= 5 E= -70.476767114434  delta_E= -3.7e-08  |g|= 0.00367  |ddm|= 1.02e-05
  HOMO = 499.805872377321  LUMO = 999.80879336143
cycle= 6 E= -70.4767671511274  delta_E= -3.67e-08  |g|= 0.00365  |ddm|= 1.02e-05
  HOMO = 499.805863982682  LUMO = 999.808792431546
cycle= 7 E= -70.4767671875107  delta_E= -3.64e-08  |g|= 0.00364  |ddm|= 1.01e-05
  HOMO = 499.805850667435  LUMO = 999.80879091813
cycle= 8 E= -70.4767672235899  delta_E= -3.61e-08  |g|= 0.00362  |ddm|= 1.01e-05
  HOMO = 499.805678199007  LUMO = 999.808767911255
cycle= 9 E= -70.4767672596514  delta_E= -3.61e-08  |g|= 0.00361  |ddm|= 1.05e-05
  HOMO = 499.805799397921  LUMO = 999.808782770867
cycle= 10 E= -70.4767672955381  delta_E= -3.59e-08  |g|= 0.00359  |ddm|= 1.02e-05
  HOMO = 499.805956789665  LUMO = 999.808800869724
cycle= 11 E= -70.4767673311328  delta_E= -3.56e-08  |g|= 0.00358  |ddm|= 1e-05
  HOMO = 499.805630095983  LUMO = 999.808763266577
cycle= 12 E= -70.4767673660654  delta_E= -3.49e-08  |g|= 0.00356  |ddm|= 1.03e-05
  HOMO = 499.805602623343  LUMO = 999.808760107089
cycle= 13 E= -70.4767674005063  delta_E= -3.44e-08  |g|= 0.00355  |ddm|= 1.03e-05
  HOMO = 499.805604921947  LUMO = 999.808760508237
cycle= 14 E= -70.4767674346563  delta_E= -3.42e-08  |g|= 0.00353  |ddm|= 1.03e-05
  HOMO = 499.805608950443  LUMO = 999.808761011066
cycle= 15 E= -70.4767674685137  delta_E= -3.39e-08  |g|= 0.00352  |ddm|= 1.02e-05
  HOMO = 499.805892811565  LUMO = 999.808794224865
cycle= 16 E= -70.4767675022534  delta_E= -3.37e-08  |g|= 0.0035  |ddm|= 9.81e-06
  HOMO = 499.805887443653  LUMO = 999.808793739314
cycle= 17 E= -70.4767675357222  delta_E= -3.35e-08  |g|= 0.00349  |ddm|= 9.76e-06
  HOMO = 499.805889147381  LUMO = 999.808794128439
cycle= 18 E= -70.4767675689181  delta_E= -3.32e-08  |g|= 0.00347  |ddm|= 9.71e-06
  HOMO = 499.805890848442  LUMO = 999.808794523979
cycle= 19 E= -70.4767676018758  delta_E= -3.3e-08  |g|= 0.00346  |ddm|= 9.65e-06
  HOMO = 499.805910205624  LUMO = 999.808796151199
cycle= 20 E= -70.476767634704  delta_E= -3.28e-08  |g|= 0.00344  |ddm|= 9.68e-06
  HOMO = 499.805902484992  LUMO = 999.808795352249
cycle= 21 E= -70.4767676670663  delta_E= -3.24e-08  |g|= 0.00343  |ddm|= 9.64e-06
  HOMO = 499.805882268413  LUMO = 999.808793181612
cycle= 22 E= -70.4767676991558  delta_E= -3.21e-08  |g|= 0.00341  |ddm|= 9.58e-06
  HOMO = 499.805887761809  LUMO = 999.808792399987
cycle= 23 E= -70.4767677313183  delta_E= -3.22e-08  |g|= 0.0034  |ddm|= 9.62e-06
  HOMO = 499.805861247537  LUMO = 999.80879017854
cycle= 24 E= -70.4767677630941  delta_E= -3.18e-08  |g|= 0.00338  |ddm|= 9.53e-06
  HOMO = 499.805808757839  LUMO = 999.808785424897
cycle= 25 E= -70.4767677944486  delta_E= -3.14e-08  |g|= 0.00337  |ddm|= 9.44e-06
  HOMO = 499.805766416911  LUMO = 999.808780750309
cycle= 26 E= -70.4767678253591  delta_E= -3.09e-08  |g|= 0.00336  |ddm|= 9.44e-06
  HOMO = 499.805770683144  LUMO = 999.808780632782
cycle= 27 E= -70.4767678559219  delta_E= -3.06e-08  |g|= 0.00334  |ddm|= 9.5e-06
  HOMO = 499.805821050697  LUMO = 999.808785158938
cycle= 28 E= -70.4767678865512  delta_E= -3.06e-08  |g|= 0.00333  |ddm|= 9.57e-06
  HOMO = 499.805791451683  LUMO = 999.808781591463
cycle= 29 E= -70.476767916558  delta_E= -3e-08  |g|= 0.00331  |ddm|= 9.76e-06
  HOMO = 499.805896307705  LUMO = 999.808794398169
cycle= 30 E= -70.4767679465939  delta_E= -3e-08  |g|= 0.0033  |ddm|= 9.4e-06
  HOMO = 499.805901486394  LUMO = 999.808794972911
cycle= 31 E= -70.4767679764378  delta_E= -2.98e-08  |g|= 0.00329  |ddm|= 9.32e-06
  HOMO = 499.805906729098  LUMO = 999.808795377932
cycle= 32 E= -70.4767680061101  delta_E= -2.97e-08  |g|= 0.00327  |ddm|= 9.28e-06
  HOMO = 499.805903052289  LUMO = 999.80879550386
cycle= 33 E= -70.4767680355675  delta_E= -2.95e-08  |g|= 0.00326  |ddm|= 9.15e-06
  HOMO = 499.805894164643  LUMO = 999.808793032013
cycle= 34 E= -70.4767680648245  delta_E= -2.93e-08  |g|= 0.00325  |ddm|= 9.33e-06
  HOMO = 499.805873063675  LUMO = 999.80879077213
cycle= 35 E= -70.4767680939884  delta_E= -2.92e-08  |g|= 0.00323  |ddm|= 9.18e-06
  HOMO = 499.805884886973  LUMO = 999.80879140179
cycle= 36 E= -70.4767681230227  delta_E= -2.9e-08  |g|= 0.00322  |ddm|= 9.25e-06
  HOMO = 499.805858787019  LUMO = 999.808789130186
cycle= 37 E= -70.4767681515585  delta_E= -2.85e-08  |g|= 0.00321  |ddm|= 9.22e-06
  HOMO = 499.805847321498  LUMO = 999.808787704317
cycle= 38 E= -70.4767681798164  delta_E= -2.83e-08  |g|= 0.00319  |ddm|= 9.23e-06
  HOMO = 499.805868004324  LUMO = 999.808789809228
cycle= 39 E= -70.4767682079102  delta_E= -2.81e-08  |g|= 0.00318  |ddm|= 9.23e-06
  HOMO = 499.80594392065  LUMO = 999.808798081195
cycle= 40 E= -70.4767682361649  delta_E= -2.83e-08  |g|= 0.00317  |ddm|= 9e-06
  HOMO = 499.805804460286  LUMO = 999.808782249222
cycle= 41 E= -70.4767682640315  delta_E= -2.79e-08  |g|= 0.00315  |ddm|= 9.02e-06
  HOMO = 499.805856646462  LUMO = 999.808790682121
cycle= 42 E= -70.4767682913323  delta_E= -2.73e-08  |g|= 0.00314  |ddm|= 8.76e-06
  HOMO = 499.805720944785  LUMO = 999.808775452503
cycle= 43 E= -70.4767683184697  delta_E= -2.71e-08  |g|= 0.00313  |ddm|= 9.12e-06
  HOMO = 499.805891837603  LUMO = 999.808794335494
cycle= 44 E= -70.4767683455834  delta_E= -2.71e-08  |g|= 0.00312  |ddm|= 8.74e-06
  HOMO = 499.805735878328  LUMO = 999.808777206609
cycle= 45 E= -70.4767683721986  delta_E= -2.66e-08  |g|= 0.0031  |ddm|= 8.74e-06
  HOMO = 499.805729304039  LUMO = 999.808776572096
cycle= 46 E= -70.4767683986087  delta_E= -2.64e-08  |g|= 0.00309  |ddm|= 8.75e-06
  HOMO = 499.805792237443  LUMO = 999.808782859575
cycle= 47 E= -70.4767684248775  delta_E= -2.63e-08  |g|= 0.00308  |ddm|= 8.68e-06
  HOMO = 499.805860908028  LUMO = 999.808791100423
cycle= 48 E= -70.4767684511009  delta_E= -2.62e-08  |g|= 0.00306  |ddm|= 8.61e-06
  HOMO = 499.805850676833  LUMO = 999.808789665519
cycle= 49 E= -70.4767684770781  delta_E= -2.6e-08  |g|= 0.00305  |ddm|= 8.6e-06
  HOMO = 499.805838019277  LUMO = 999.808787842593
cycle= 50 E= -70.4767685029412  delta_E= -2.59e-08  |g|= 0.00304  |ddm|= 8.62e-06
  HOMO = -0.193864940752526  LUMO = -0.191155962206788
Extra cycle  E= -70.4763982777414  delta_E= 0.00037  |g|= 0.0125  |ddm|= 0.0841
SCF not converged.
SCF energy = -70.4763982777414 after 50 cycles
**** MO energy ****
                Roothaan           | alpha              | beta
MO #1   energy= -3.28574923698467  | -3.42083860436966  | -3.15069435526757  occ= 2
MO #2   energy= -2.11912371849176  | -2.26946696049497  | -1.96878047648854  occ= 2
MO #3   energy= -2.11912371849169  | -2.26946696049498  | -1.9687804764884   occ= 2
MO #4   energy= -2.11055238052047  | -2.31292904822452  | -1.90817571281642  occ= 2
MO #5   energy= -0.229579943088563 | -0.614365055661856 | 0.154512803260837  occ= 1
MO #6   energy= -0.202700929041995 | -0.57599593816401  | 0.170239130488794  occ= 1
MO #7   energy= -0.202700929041864 | -0.575995938163551 | 0.170239130488793  occ= 1
MO #8   energy= -0.193864940752526 | -0.561946175798686 | 0.174623055205277  occ= 1
MO #9   energy= -0.191155962206788 | -0.207422627343652 | -0.175416785833912 occ= 0
MO #10  energy= -0.111966361524263 | -0.11689952946488  | -0.107033193583645 occ= 0
MO #11  energy= -0.11196636152426  | -0.116899529464878 | -0.107033193583639 occ= 0
MO #12  energy= -0.108311381200388 | -0.11457593838119  | -0.102046824019583 occ= 0
MO #13  energy= -0.0701678587158147 | -0.0726968866008163 | -0.0676411530587364 occ= 0
MO #14  energy= -0.0566297243818371 | -0.0600774212149643 | -0.0531820275487119 occ= 0
MO #15  energy= -0.0497745054835809 | -0.0512663520691979 | -0.0482826588979655 occ= 0
MO #16  energy= -0.0497745054835795 | -0.051266352069196 | -0.0482826588979637 occ= 0
MO #17  energy= -0.0487081942451469 | -0.0507076532667158 | -0.0467087352235761 occ= 0
MO #18  energy= -0.0471046737410889 | -0.0481526719085569 | -0.0459949190831846 occ= 0
MO #19  energy= -0.0460074703479705 | -0.0471231026931475 | -0.044866761182792 occ= 0
MO #20  energy= -0.046007470347956 | -0.0471231026931396 | -0.0448667611828052 occ= 0
MO #21  energy= -0.0456207174276257 | -0.0467674165227981 | -0.04447353374607  occ= 0
MO #22  energy= -0.00636415613884787 | -0.0181216144679069 | 0.00539330219020876 occ= 0
MO #23  energy= 0.0395483042316612 | 0.0340554803735844 | 0.0452532925746797 occ= 0
MO #24  energy= 0.0427930961865328 | 0.0367206176974202 | 0.0489537379178327 occ= 0
MO #25  energy= 0.0427930961865777 | 0.0367206176974458 | 0.0489537379178693 occ= 0
MO #26  energy= 0.043981965942953  | 0.0376575457176569 | 0.0503150514905665 occ= 0
MO #27  energy= 0.0508067038644503 | 0.0393615287254313 | 0.0622518790034684 occ= 0
MO #28  energy= 0.0508067038644698 | 0.0393615287254391 | 0.0622518790034964 occ= 0
MO #29  energy= 0.0571595738335239 | 0.0411670802775022 | 0.0731520673895436 occ= 0
MO #30  energy= 0.0886450050959451 | 0.08009649185794   | 0.0971888391167541 occ= 0
MO #31  energy= 0.107134970933186  | 0.0790451739202533 | 0.135224767946117  occ= 0
MO #32  energy= 0.993506674533665  | 0.910122833563017  | 1.07730896075283   occ= 0
MO #33  energy= 1.01496233006595   | 0.932716727332186  | 1.09744964232875   occ= 0
MO #34  energy= 1.01496233006625   | 0.932716727332456  | 1.09744964232894   occ= 0
MO #35  energy= 1.0221448120626    | 0.940409135100145  | 1.10403378081854   occ= 0
MO #36  energy= 1.06931340588832   | 1.04122968044199   | 1.09739713133465   occ= 0
MO #37  energy= 1.51657063151885   | 1.47125311616937   | 1.56188792013149   occ= 0
MO #38  energy= 2.4411885399949    | 2.38883844074622   | 2.49353863924358   occ= 0
MO #39  energy= 2.44118853999495   | 2.38883844074623   | 2.49353863924367   occ= 0
MO #40  energy= 2.46843926199995   | 2.39978341975776   | 2.53709510424215   occ= 0
MO #41  energy= 2.8542074195323    | 2.78417875340489   | 2.92423608565971   occ= 0
MO #42  energy= 2.8542074195323    | 2.7841787534049    | 2.92423608565971   occ= 0
MO #43  energy= 2.85613475252204   | 2.75688398744433   | 2.95538551759976   occ= 0
MO #44  energy= 2.86624464593593   | 2.7962238098775    | 2.93626548199435   occ= 0
MO #45  energy= 2.86821136970892   | 2.7841908359631    | 2.95223190345474   occ= 0
MO #46  energy= 2.86821136970892   | 2.78419083596311   | 2.95223190345473   occ= 0
MO #47  energy= 2.86944213439754   | 2.77499700463257   | 2.96388726416252   occ= 0
MO #48  energy= 7.39431450480111   | 7.34354416827844   | 7.44508484132377   occ= 0
MO #49  energy= 7.39431450480111   | 7.34354416827844   | 7.44508484132379   occ= 0
MO #50  energy= 7.41049990079309   | 7.35459434093894   | 7.46640546064721   occ= 0
MO #51  energy= 7.41052164286425   | 7.33230234805002   | 7.4887409376785    occ= 0
MO #52  energy= 7.42028518283266   | 7.34795230835466   | 7.49261805731063   occ= 0
MO #53  energy= 7.42028518283267   | 7.34795230835469   | 7.49261805731066   occ= 0
MO #54  energy= 7.42356880606091   | 7.35027334318151   | 7.4968642689403    occ= 0
 ** Mulliken pop on meta-lowdin orthogonal AOs  **
 ** Mulliken pop  **
pop of  0V 3s        1.99966
pop of  0V 4s        0.00611
pop of  0V 5s        0.00013
pop of  0V 6s        0.00002
pop of  0V 7s        0.00002
pop of  0V 3px       1.99982
pop of  0V 3py       1.99982
pop of  0V 3pz       1.99977
pop of  0V 4px       0.00005
pop of  0V 4py       0.00005
pop of  0V 4pz       0.00013
pop of  0V 5px       0.00005
pop of  0V 5py       0.00005
pop of  0V 5pz       0.00005
pop of  0V 6px       0.00000
pop of  0V 6py       0.00000
pop of  0V 6pz       0.00000
pop of  0V 7px       0.00000
pop of  0V 7py       0.00000
pop of  0V 7pz       0.00000
pop of  0V 3dxy      0.99960
pop of  0V 3dyz      0.99926
pop of  0V 3dz^2     0.99310
pop of  0V 3dxz      0.99926
pop of  0V 3dx2-y2    0.00000
pop of  0V 4dxy      0.00011
pop of  0V 4dyz      0.00067
pop of  0V 4dz^2     0.00094
pop of  0V 4dxz      0.00067
pop of  0V 4dx2-y2    0.00000
pop of  0V 5dxy      0.00028
pop of  0V 5dyz      0.00006
pop of  0V 5dz^2     0.00003
pop of  0V 5dxz      0.00006
pop of  0V 5dx2-y2    0.00000
pop of  0V 6dxy      0.00001
pop of  0V 6dyz      0.00000
pop of  0V 6dz^2     0.00000
pop of  0V 6dxz      0.00000
pop of  0V 6dx2-y2    0.00000
pop of  0V 4fy^3     0.00003
pop of  0V 4fxyz     0.00000
pop of  0V 4fyz^2    0.00001
pop of  0V 4fz^3     0.00002
pop of  0V 4fxz^2    0.00001
pop of  0V 4fzx^2    0.00000
pop of  0V 4fx^3     0.00003
pop of  0V 5fy^3     0.00004
pop of  0V 5fxyz     0.00000
pop of  0V 5fyz^2    0.00000
pop of  0V 5fz^3     0.00002
pop of  0V 5fxz^2    0.00000
pop of  0V 5fzx^2    0.00000
pop of  0V 5fx^3     0.00004
 ** Mulliken atomic charges  **
charge of  0V =      1.00000

******** <class 'pyscf.mcscf.mc1step.CASSCF'> flags ********
CAS (4e+0e, 6o), ncore = 4, nvir = 44
max_cycle_macro = 50
max_cycle_micro = 4
conv_tol = 1e-07
conv_tol_grad = None
orbital rotation max_stepsize = 0.02
augmented hessian ah_max_cycle = 30
augmented hessian ah_conv_tol = 1e-12
augmented hessian ah_linear dependence = 1e-14
augmented hessian ah_level shift = 0
augmented hessian ah_start_tol = 2.5
augmented hessian ah_start_cycle = 3
augmented hessian ah_grad_trust_region = 3
kf_trust_region = 3
kf_interval = 4
ci_response_space = 4
ci_grad_trust_region = 3
with_dep4 0
natorb = False
canonicalization = True
chkfile = ./scratch/157003/tmpmdcQjQ
max_memory 4000 MB (current use 170 MB)
internal_rotation = False

******** SHCI flags ********
executable             = /home/bamu3429/softwares/dice/Dice
mpiprefix              = mpirun -np 28
scratchDirectory       = ./scratch/157003
integralFile           = ./FCIDUMP
configFile             = ./input.dat
outputFile             = ./output.dat
maxIter                = 6
sweep_iter             = []
sweep_epsilon          = []
nPTiter                = 0
Stochastic             = True
fullrestart            = False
restart                = False
num_thrds              = 12
memory                 = None

CASCI E = -70.4767727038113  S^2 = 6.0000000
Set conv_tol_grad to 0.000316228
macro iter 1 (11 JK  3 micro), CASSCF E = -70.4767744636251  dE = -1.7598138e-06  S^2 = 6.0000000
               |grad[o]|=0.00245  |grad[c]|= None  |ddm|=0.00292
macro iter 2 (3 JK  1 micro), CASSCF E = -70.4767744712036  dE = -7.5785209e-09  S^2 = 6.0000000
               |grad[o]|=5.06e-05  |grad[c]|= None  |ddm|=    0
1-step CASSCF converged in 2 macro (14 JK 4 micro) steps
CASSCF canonicalization
CASSCF energy = -70.4767744712036


--------------------------------------------------
                 ICMPSPT CALCULATION              
--------------------------------------------------

Perturbation type: MRLCC
With fully internally contracted scheme
With third order correction

Preparing necessary RDMs
......production of RDMs took       3.13 sec
Reading binary 4RDM from DICE
......reading the RDM took          1.03 sec

(GOOD) Trace 4RDM:     24.0 =    4*    3*    2*    1
(GOOD) Trace 3RDM:     24.0 =    4*    3*    2
(GOOD) Trace 2RDM:     12.0 =    4*    3
(GOOD) Trace 1RDM:      4.0 =    4

Producing the integrals
......production of INT took      38.28 sec

Energy_core =  -64.5099643375
Energy      =  -70.4767744712

WARNING: Have to use natural orbitals from CAASCF
         offdiagonal elements: 0.720156875419

Basic ingredients written to int/
......savings of INGREDIENTS took      11.73 sec

Second-order:
perturber CCVV --        -0.111488155
perturber CCAV --        -0.057699227
perturber ACVV --        -0.110173557
perturber CCAA --        -0.013712332
perturber AAVV --        -0.044109531
perturber CAAV --        -0.053245082
perturber AAAV --        -0.000153389
perturber AAAC --        -0.000017282
Total:                   -0.390598557

Third-order:              0.001080543

Total PT       --        -0.389518013

