 &FCI NORB=6 ,NELEC=7 ,MS2=5,
  ORBSYM=1,1,1,1,1,1,
  ISYM=1,
 &END
  2.702812496816e-01    1  1  1  1
  4.363183307314e-09    2  1  1  1
  7.167600842955e-03    2  1  2  1
  3.462863782973e-01    2  2  1  1
  2.542764524352e-05    2  2  2  1
  8.629370866448e-01    2  2  2  2
 -2.746767183528e-07    3  1  1  1
 -3.787644384594e-11    3  1  2  1
  1.801444272965e-04    3  1  2  2
  7.167597805017e-03    3  1  3  1
  4.094685263185e-11    3  2  1  1
  1.819727224909e-04    3  2  2  1
  4.990595305937e-10    3  2  2  2
  7.879938412545e-06    3  2  3  1
  1.890543387310e-02    3  2  3  2
  3.462863828302e-01    3  3  1  1
  7.903659514504e-06    3  3  2  1
  8.251262766262e-01    3  3  2  2
  5.315196075788e-04    3  3  3  1
  4.852200580718e-10    3  3  3  2
  8.629372016702e-01    3  3  3  3
  1.819534868476e-10    4  1  1  1
  1.230043257895e-11    4  1  2  1
  5.533322069375e-07    4  1  2  2
  6.967788544908e-08    4  1  3  2
 -1.383238856637e-07    4  1  3  3
  7.167602376155e-03    4  1  4  1
 -3.357535063461e-11    4  2  1  1
  5.522197058402e-07    4  2  2  1
 -1.639623784801e-10    4  2  2  2
  6.981760973135e-08    4  2  3  1
  4.506991204882e-06    4  2  3  2
  7.186125825271e-07    4  2  3  3
  1.563244439894e-04    4  2  4  1
  3.362039916244e-02    4  2  4  2
  3.572525822421e-12    4  3  1  1
  6.945048707763e-08    4  3  2  1
 -9.013979933559e-06    4  3  2  2
 -1.393895037245e-07    4  3  3  1
 -3.593863844594e-07    4  3  3  2
 -1.511495706244e-11    4  3  3  3
 -1.266084856241e-03    4  3  4  1
 -1.097443901807e-04    4  3  4  2
  3.571526102125e-02    4  3  4  3
  3.462863752383e-01    4  4  1  1
  1.563568187628e-04    4  4  2  1
  7.956962499211e-01    4  4  2  2
 -1.267749818943e-03    4  4  3  1
  2.194934833595e-04    4  4  3  2
  7.915065098856e-01    4  4  3  3
  1.823726002924e-07    4  4  4  1
 -1.663748787258e-10    4  4  4  2
  1.494766583687e-11    4  4  4  3
  8.629370100183e-01    4  4  4  4
  6.827284548976e-10    5  1  1  1
 -8.272773375988e-07    5  1  2  2
  1.257107391828e-11    5  1  3  1
  2.686431057083e-07    5  1  3  2
 -6.398596054637e-07    5  1  3  3
 -7.456594289290e-10    5  1  4  1
  1.185073588645e-03    5  1  4  2
  1.582013850959e-04    5  1  4  3
  2.669753790249e-07    5  1  4  4
  7.167591438020e-03    5  1  5  1
 -1.884856499197e-12    5  2  1  1
 -8.315990318779e-07    5  2  2  1
 -1.512352041668e-11    5  2  2  2
  2.686696711735e-07    5  2  3  1
 -1.142507939157e-06    5  2  3  2
 -7.218539093128e-06    5  2  3  3
  1.185206349964e-03    5  2  4  1
 -1.057923325393e-04    5  2  4  2
 -1.609216422179e-02    5  2  4  3
  1.894954331737e-07    5  2  4  4
 -1.647886776483e-04    5  2  5  1
  3.364907109812e-02    5  2  5  2
 -3.155509372515e-11    5  3  1  1
  2.686805237777e-07    5  3  2  1
  2.284837658182e-06    5  3  2  2
 -6.442833781402e-07    5  3  3  1
  3.609268858125e-06    5  3  3  2
 -1.729370284542e-10    5  3  3  3
  1.582023535210e-04    5  3  4  1
  1.380366693070e-02    5  3  4  2
 -3.035999398477e-04    5  3  4  3
  7.692498608464e-06    5  3  4  4
  1.083825407310e-03    5  3  5  1
  9.349315113271e-05    5  3  5  2
  3.120562269581e-02    5  3  5  3
  1.010650946875e-09    5  4  1  1
  1.185203842212e-03    5  4  2  1
  2.115919911934e-04    5  4  2  2
  1.582084290530e-04    5  4  3  1
  2.288527582516e-03    5  4  3  2
  6.072159911937e-04    5  4  3  3
  2.627739318411e-07    5  4  4  1
 -9.478177115739e-08    5  4  4  2
 -3.846269714755e-06    5  4  4  3
  8.012189587977e-09    5  4  4  4
 -5.883155723720e-07    5  4  5  1
 -5.465200828550e-06    5  4  5  2
 -4.253669185606e-06    5  4  5  3
  3.363510991507e-02    5  4  5  4
  3.462863905482e-01    5  5  1  1
 -1.647750317528e-04    5  5  2  1
  7.956390204536e-01    5  5  2  2
  1.082256231636e-03    5  5  3  1
 -1.869904993337e-04    5  5  3  2
  8.005260210600e-01    5  5  3  3
 -5.872912071216e-07    5  5  4  1
  1.093005326169e-05    5  5  4  2
  8.507271044302e-06    5  5  4  3
  7.956669044060e-01    5  5  4  4
  1.422535469678e-06    5  5  5  1
 -1.776856759188e-12    5  5  5  2
 -2.161208522567e-10    5  5  5  3
  8.012240072485e-09    5  5  5  4
  8.629372384539e-01    5  5  5  5
  2.538672901167e-07    6  1  1  1
 -5.111433674022e-12    6  1  2  1
  1.370129403634e-03    6  1  2  2
 -4.906616775728e-09    6  1  3  1
 -4.425728009451e-06    6  1  3  2
  1.275170083997e-03    6  1  3  3
  6.375444620360e-07    6  1  4  2
 -5.700875671354e-10    6  1  4  3
 -5.277126482036e-04    6  1  4  4
 -8.372875840514e-12    6  1  5  1
 -5.985513394188e-07    6  1  5  2
  8.339207005780e-07    6  1  5  3
 -2.837864737107e-05    6  1  5  4
 -8.383714824885e-04    6  1  5  5
  7.167594504904e-03    6  1  6  1
 -8.900509767315e-11    6  2  1  1
  1.368837185697e-03    6  2  2  1
 -7.057558342060e-10    6  2  2  2
 -4.424116355513e-06    6  2  3  1
  2.627123246532e-03    6  2  3  2
 -2.444003156983e-04    6  2  3  3
  6.379697807473e-07    6  2  4  1
  1.370069161656e-06    6  2  4  2
 -8.497802784949e-06    6  2  4  3
  2.453196646572e-03    6  2  4  4
 -5.985273755315e-07    6  2  5  1
 -2.851930837921e-06    6  2  5  2
 -2.087469642347e-06    6  2  5  3
  1.710126078738e-02    6  2  5  4
 -2.208796872230e-03    6  2  5  5
 -2.481134630595e-05    6  2  6  1
  3.831234936670e-02    6  2  6  2
  6.149843088565e-09    6  3  1  1
 -4.425993392429e-06    6  3  2  1
 -5.254190495949e-03    6  3  2  2
  1.273911931332e-03    6  3  3  1
  1.221997100621e-04    6  3  3  2
  5.363039242763e-08    6  3  3  3
 -5.905644184325e-10    6  3  4  1
  7.742883189850e-06    6  3  4  2
 -4.739791944037e-07    6  3  4  3
 -1.403167656953e-02    6  3  4  4
  8.342858629773e-07    6  3  5  1
  5.556330555400e-06    6  3  5  2
 -3.828239909817e-06    6  3  5  3
  2.228699462246e-03    6  3  5  4
  1.928593570910e-02    6  3  5  5
 -5.335611537612e-04    6  3  6  1
  1.625110907823e-05    6  3  6  2
  3.866093154334e-02    6  3  6  3
  3.525127869339e-12    6  4  1  1
  6.376679844676e-07    6  4  2  1
 -2.740163792085e-06    6  4  2  2
 -5.795926380732e-10    6  4  3  1
  7.549348995979e-07    6  4  3  2
  9.479457871378e-07    6  4  3  3
 -5.292114072097e-04    6  4  4  1
 -1.226599565272e-03    6  4  4  2
  7.015853387138e-03    6  4  4  3
  1.543719424758e-11    6  4  4  4
 -2.836237142301e-05    6  4  5  1
 -6.562928434219e-03    6  4  5  2
 -1.206811028897e-03    6  4  5  3
  6.680145326346e-06    6  4  5  4
  1.792231159535e-06    6  4  5  5
 -5.361297141616e-09    6  4  6  1
  5.824502259401e-06    6  4  6  2
 -2.533365843167e-07    6  4  6  3
  2.151647336475e-02    6  4  6  4
  2.127015959907e-11    6  5  1  1
 -5.985575361014e-07    6  5  2  1
  5.703871760523e-06    6  5  2  2
  8.339203977146e-07    6  5  3  1
 -3.468880354425e-06    6  5  3  2
  7.656536827621e-06    6  5  3  3
 -2.836332118572e-05    6  5  4  1
 -1.053835100128e-02    6  5  4  2
 -1.021891649899e-03    6  5  4  3
 -1.336014681878e-05    6  5  4  4
 -8.396287671507e-04    6  5  5  1
  1.104399766583e-03    6  5  5  2
 -9.642975222131e-03    6  5  5  3
 -8.960978252363e-07    6  5  5  4
  1.641428907634e-10    6  5  5  5
 -2.032411719510e-07    6  5  6  1
 -3.514496113309e-06    6  5  6  2
  4.988789270494e-06    6  5  6  3
  4.093960324320e-04    6  5  6  4
  2.599749712901e-02    6  5  6  5
  3.462863870179e-01    6  6  1  1
 -2.478934066245e-05    6  6  2  1
  7.863124087105e-01    6  6  2  2
 -5.351283142571e-04    6  6  3  1
 -3.250222458363e-05    6  6  3  2
  7.856152684266e-01    6  6  3  3
 -4.217957196790e-09    6  6  4  1
 -1.164918782245e-05    6  6  4  2
  5.066737931876e-07    6  6  4  3
  8.199041821362e-01    6  6  4  4
 -1.986291586579e-07    6  6  5  1
  7.028998401450e-06    6  6  5  2
 -9.977710105283e-06    6  6  5  3
 -8.187831595396e-04    6  6  5  4
  8.109422586011e-01    6  6  5  5
 -1.272057111270e-03    6  6  6  1
  3.371632385821e-10    6  6  6  2
  2.135304651833e-08    6  6  6  3
  1.466356795373e-11    6  6  6  4
  1.418944706478e-10    6  6  6  5
  8.629372411211e-01    6  6  6  6
 -2.235954907094e+00    1  1  0  0
 -1.138638627162e-07    2  1  0  0
 -4.398406444583e+00    2  2  0  0
  8.165866507542e-06    3  1  0  0
 -1.289274880502e-09    3  2  0  0
 -4.398406624949e+00    3  3  0  0
 -5.349202723324e-09    4  1  0  0
  6.423265470582e-10    4  2  0  0
  2.704513707669e-11    4  3  0  0
 -4.398406299473e+00    4  4  0  0
 -2.152673320291e-08    5  1  0  0
  5.185389409677e-11    5  2  0  0
  5.650669558775e-10    5  3  0  0
 -3.067857371892e-08    5  4  0  0
 -4.398406737723e+00    5  5  0  0
 -6.595948480728e-06    6  1  0  0
  7.372280902978e-10    6  2  0  0
 -9.893010396245e-08    6  3  0  0
 -3.119286011717e-11    6  4  0  0
 -4.150219794593e-10    6  5  0  0
 -4.398406684223e+00    6  6  0  0
    -88.444121030643   0  0  0  0
