#INFO: **** input file is /projects/bamu3429/BENCHMARK/fresh_atoms/MRPT/atoms/Mn_0/mrpt.py ****
import json
from pyscf import gto,scf,mcscf, fci, lo, ci, cc
from pyscf.scf import ROHF, UHF,ROKS
import numpy as np
import pandas as pd

# THIS IS WERE IT STARTS ====================================

df=json.load(open("../../trail.json"))

spins={'Sc':1, 'Ti':2, 'V':3, 'Cr':6, 'Mn':5, 'Fe':4, 'Cu':1}

nd={'Sc':(1,0), 'Ti':(2,0), 'V':(3,0), 'Cr':(5,0), 'Mn':(5,0), 'Fe':(5,1), 'Cu':(5,5)}

cas={'Sc':3, 'Ti':4, 'V':5, 'Cr':6, 'Mn':7, 'Fe':8, 'Cu':11}

datacsv={}
for nm in ['atom','charge','method','basis','pseudopotential','hf',
           'totalenergy','totalenergy-stocherr','totalenergy-syserr']:
  datacsv[nm]=[]

basis='vdz'
el='Mn'
charge=0

mol=gto.Mole()
mol.ecp={}
mol.basis={}
mol.ecp[el]=gto.basis.parse_ecp(df[el]['ecp'])
mol.basis[el]=gto.basis.parse(df[el][basis])
mol.charge=charge
if el == 'Cr' or el == 'Cu':
  mol.spin=spins[el]-charge
else:
  mol.spin=spins[el]+charge
mol.build(atom="%s 0. 0. 0."%el,verbose=4)

m=ROHF(mol)
m.level_shift=1000.0
dm=m.from_chk("../../../HF/atoms/"+el+basis+str(charge)+".chk")
hf=m.kernel(dm)
m.analyze()

from pyscf.shciscf import shci
mc = shci.SHCISCF(m, 6, cas[el]-charge)
#mc.fcisolver.conv_tol = 1e-14
mc.fcisolver.mpiprefix="mpirun -np 28"
mc.fcisolver.num_thrds=12
mc.verbose = 4
cas=mc.kernel()[0]
 
from pyscf.icmpspt import icmpspt
pt=icmpspt.icmpspt(mc,rdmM=500, PTM=1000,\
                          pttype="MRLCC",\
                          third_order=True,\
                          fully_ic=True,\
                          do_dm4=True)

datacsv['atom'].append(el)
datacsv['charge'].append(charge)
datacsv['method'].append('MRPT')
datacsv['basis'].append(basis)
datacsv['pseudopotential'].append('trail')
datacsv['hf'].append(hf)
datacsv['totalenergy'].append(cas+pt)
datacsv['totalenergy-stocherr'].append(0.0)
datacsv['totalenergy-syserr'].append(0.0)
pd.DataFrame(datacsv).to_csv(el+".csv",index=False)

#INFO: ******************** input file end ********************


System: ('Linux', 'bnode0308.rc.int.colorado.edu', '3.10.0-514.41.1.el7.x86_64', '#1 SMP Wed Jan 17 10:26:16 EST 2018', 'x86_64', 'x86_64')  Threads 1
Python 2.7.11 (default, Mar 22 2016, 01:42:54) 
[GCC Intel(R) C++ gcc 4.8 mode]
numpy 1.11.1  scipy 0.17.1
Date: Fri Mar 23 16:07:43 2018
PySCF version 1.4
PySCF path  /projects/bamu3429/softwares/pyscf_uptodate/pyscf
GIT ORIG_HEAD e2292e6edec2b0e0024c21b81de03db1d7bd4121
GIT HEAD      ref: refs/heads/master
GIT master branch  f3591ef22170896a4cdc2aadaa6f5da388ffcadb

[INPUT] VERBOSE 4
[INPUT] num atoms = 1
[INPUT] num electrons = 15
[INPUT] charge = 0
[INPUT] spin (= nelec alpha-beta = 2S) = 5
[INPUT] symmetry False subgroup None
[INPUT]  1 Mn     0.000000000000   0.000000000000   0.000000000000 AA    0.000000000000   0.000000000000   0.000000000000 Bohr
[INPUT] ---------------- BASIS SET ---------------- 
[INPUT] l, kappa, [nprim/nctr], expnt,             c_1 c_2 ...
[INPUT] Mn
[INPUT] 0    0    [12   /1   ]  41.19094709       0.0124
                                21.94503151       -0.141461
                                12.89081507       0.669584
                                8.14876869        -1.015431
                                3.94904809        0.149151
                                1.91298055        0.350677
                                1.10736282        0.627006
                                0.4793266         0.235349
                                0.22675293        -0.024214
                                0.10639652        0.017357
                                0.05000494        -0.005272
                                0.0234982         0.002181
[INPUT] 0    0    [12   /1   ]  41.19094709       -0.002036
                                21.94503151       0.02709
                                12.89081507       -0.142056
                                8.14876869        0.229945
                                3.94904809        -0.035538
                                1.91298055        -0.085336
                                1.10736282        -0.24355
                                0.4793266         -0.201798
                                0.22675293        0.098761
                                0.10639652        0.439512
                                0.05000494        0.524416
                                0.0234982         0.13192
[INPUT] 0    0    [12   /1   ]  41.19094709       -0.004448
                                21.94503151       0.086272
                                12.89081507       -0.555298
                                8.14876869        1.050441
                                3.94904809        -0.337173
                                1.91298055        -1.203908
                                1.10736282        -0.006079
                                0.4793266         0.670363
                                0.22675293        0.824311
                                0.10639652        0.061945
                                0.05000494        -0.613998
                                0.0234982         -0.243067
[INPUT] 0    0    [1    /1   ]  0.0234982            1
[INPUT] 0    0    [1    /1   ]  0.01104221           1
[INPUT] 1    0    [12   /1   ]  60.1913049        0.000757
                                31.1792672        -0.006538
                                16.24276866       0.042902
                                8.80021485        -0.164602
                                5.33575038        0.099387
                                3.0325056         0.217723
                                1.63861968        0.443669
                                0.80258711        0.32785
                                0.40627833        0.098641
                                0.17382998        0.011768
                                0.07306386        -0.000703
                                0.03071005        0.000403
[INPUT] 1    0    [12   /1   ]  60.1913049        -0.000118
                                31.1792672        0.001208
                                16.24276866       -0.009122
                                8.80021485        0.038924
                                5.33575038        -0.027473
                                3.0325056         -0.058215
                                1.63861968        -0.124371
                                0.80258711        -0.107355
                                0.40627833        0.040741
                                0.17382998        0.350952
                                0.07306386        0.523294
                                0.03071005        0.234255
[INPUT] 1    0    [12   /1   ]  60.1913049        -0.000211
                                31.1792672        -0.002024
                                16.24276866       0.037014
                                8.80021485        -0.235453
                                5.33575038        0.184384
                                3.0325056         0.808525
                                1.63861968        0.15119
                                0.80258711        -0.861849
                                0.40627833        -0.476701
                                0.17382998        0.542345
                                0.07306386        0.419535
                                0.03071005        0.008828
[INPUT] 1    0    [1    /1   ]  0.03071005           1
[INPUT] 1    0    [1    /1   ]  0.01290798           1
[INPUT] 2    0    [10   /1   ]  52.56900844       0.000307
                                23.81654224       -0.007961
                                11.32693504       0.114253
                                4.99176622        0.164228
                                2.46839125        0.269996
                                1.15974738        0.320627
                                0.53124091        0.273188
                                0.24220121        0.161357
                                0.11248934        0.058244
                                0.05201371        0.009574
[INPUT] 2    0    [10   /1   ]  52.56900844       0.000227
                                23.81654224       0.005426
                                11.32693504       -0.108395
                                4.99176622        -0.200206
                                2.46839125        -0.359104
                                1.15974738        -0.096632
                                0.53124091        0.250081
                                0.24220121        0.404676
                                0.11248934        0.295662
                                0.05201371        0.077911
[INPUT] 2    0    [1    /1   ]  0.05201371           1
[INPUT] 2    0    [1    /1   ]  0.02405051           1
[INPUT] 3    0    [1    /1   ]  2.379676             1
[INPUT] 3    0    [1    /1   ]  1.10033338           1
nuclear repulsion = 0
number of shells = 16
number of NR pGTOs = 276
number of NR cGTOs = 54
basis = {'Mn': [[0, [41.19094709, 0.0124], [21.94503151, -0.141461], [12.89081507, 0.669584], [8.14876869, -1.015431], [3.94904809, 0.149151], [1.91298055, 0.350677], [1.10736282, 0.627006], [0.4793266, 0.235349], [0.22675293, -0.024214], [0.10639652, 0.017357], [0.05000494, -0.005272], [0.0234982, 0.002181]], [0, [41.19094709, -0.002036], [21.94503151, 0.02709], [12.89081507, -0.142056], [8.14876869, 0.229945], [3.94904809, -0.035538], [1.91298055, -0.085336], [1.10736282, -0.24355], [0.4793266, -0.201798], [0.22675293, 0.098761], [0.10639652, 0.439512], [0.05000494, 0.524416], [0.0234982, 0.13192]], [0, [41.19094709, -0.004448], [21.94503151, 0.086272], [12.89081507, -0.555298], [8.14876869, 1.050441], [3.94904809, -0.337173], [1.91298055, -1.203908], [1.10736282, -0.006079], [0.4793266, 0.670363], [0.22675293, 0.824311], [0.10639652, 0.061945], [0.05000494, -0.613998], [0.0234982, -0.243067]], [0, [0.0234982, 1.0]], [0, [0.01104221, 1.0]], [1, [60.1913049, 0.000757], [31.1792672, -0.006538], [16.24276866, 0.042902], [8.80021485, -0.164602], [5.33575038, 0.099387], [3.0325056, 0.217723], [1.63861968, 0.443669], [0.80258711, 0.32785], [0.40627833, 0.098641], [0.17382998, 0.011768], [0.07306386, -0.000703], [0.03071005, 0.000403]], [1, [60.1913049, -0.000118], [31.1792672, 0.001208], [16.24276866, -0.009122], [8.80021485, 0.038924], [5.33575038, -0.027473], [3.0325056, -0.058215], [1.63861968, -0.124371], [0.80258711, -0.107355], [0.40627833, 0.040741], [0.17382998, 0.350952], [0.07306386, 0.523294], [0.03071005, 0.234255]], [1, [60.1913049, -0.000211], [31.1792672, -0.002024], [16.24276866, 0.037014], [8.80021485, -0.235453], [5.33575038, 0.184384], [3.0325056, 0.808525], [1.63861968, 0.15119], [0.80258711, -0.861849], [0.40627833, -0.476701], [0.17382998, 0.542345], [0.07306386, 0.419535], [0.03071005, 0.008828]], [1, [0.03071005, 1.0]], [1, [0.01290798, 1.0]], [2, [52.56900844, 0.000307], [23.81654224, -0.007961], [11.32693504, 0.114253], [4.99176622, 0.164228], [2.46839125, 0.269996], [1.15974738, 0.320627], [0.53124091, 0.273188], [0.24220121, 0.161357], [0.11248934, 0.058244], [0.05201371, 0.009574]], [2, [52.56900844, 0.000227], [23.81654224, 0.005426], [11.32693504, -0.108395], [4.99176622, -0.200206], [2.46839125, -0.359104], [1.15974738, -0.096632], [0.53124091, 0.250081], [0.24220121, 0.404676], [0.11248934, 0.295662], [0.05201371, 0.077911]], [2, [0.05201371, 1.0]], [2, [0.02405051, 1.0]], [3, [2.379676, 1.0]], [3, [1.10033338, 1.0]]]}
ecp = {'Mn': [10, [[-1, [[], [[18.43432244, 15.0]], [[12.74175213, 31301.56494509], [11.67410914, -4576.3546318], [12.90376156, -26766.73507377], [4.97171871, -4.09339906]], [[8.79264819, 276.51483655]]]], [0, [[], [], [[13.56187871, 2771.78238977], [9.44812535, 12553.69429672], [10.76503846, 1886.79316638], [11.65345594, -9260.55332402], [8.48073002, -8943.95003535], [6.96707028, 1041.73211249]], []]], [1, [[], [], [[12.71342918, -23181.32761179], [18.03174513, 111577.22220216], [16.6827906, -42399.84416473], [13.18867124, 16025.79106608], [18.42861128, -76264.60573764], [12.90928974, 14270.47832347]], []]], [2, [[], [], [[8.13384228, -382.83904013], [14.28699222, 5676.99013005], [11.14406629, 35338.03440844], [11.37674978, -38881.44458388], [18.25818233, 3550.6602642], [17.73146307, -5317.47975296]], []]]]]}
CPU time:         0.56


******** <class 'pyscf.scf.rohf.ROHF'> flags ********
method = ROHF
initial guess = minao
damping factor = 0
level shift factor = 1000.0
DIIS = <class 'pyscf.scf.diis.CDIIS'>
DIIS start cycle = 1
DIIS space = 8
SCF tol = 1e-09
SCF gradient tol = None
max. SCF cycles = 50
direct_scf = True
direct_scf_tol = 1e-13
chkfile to save SCF result = /projects/bamu3429/BENCHMARK/fresh_atoms/MRPT/atoms/Mn_0/tmpXcjI6U
max_memory 4000 MB (current use 81 MB)
num. doubly occ = 5  num. singly occ = 5
Set gradient conv threshold to 3.16228e-05
init E= -103.515039594136
  HOMO = 499.858998292429  LUMO = 1000.01952484183
cycle= 1 E= -103.515039594136  delta_E= -2.42e-13  |g|= 7.01e-06  |ddm|= 2.1e-08
  HOMO = -0.141001710488815  LUMO = 0.0195248418505305
Extra cycle  E= -103.515039594146  delta_E= -1.02e-11  |g|= 3.76e-06  |ddm|= 3.05e-05
converged SCF energy = -103.515039594146
**** MO energy ****
                Roothaan           | alpha              | beta
MO #1   energy= -4.02085738672606  | -4.23823178650171  | -3.80348298695051  occ= 2
MO #2   energy= -2.52776965519772  | -2.79165796185554  | -2.26388134853989  occ= 2
MO #3   energy= -2.52776956561008  | -2.79165759889283  | -2.26388153232732  occ= 2
MO #4   energy= -2.52776952641219  | -2.79165774361956  | -2.26388130920482  occ= 2
MO #5   energy= -0.252160734365475 | -0.270079712101668 | -0.234241756569831 occ= 2
MO #6   energy= -0.14100186439374  | -0.634714152055173 | 0.35271032731397   occ= 1
MO #7   energy= -0.141001842414858 | -0.634714317794867 | 0.352710387346121  occ= 1
MO #8   energy= -0.141001764676647 | -0.634713945436694 | 0.352710378645426  occ= 1
MO #9   energy= -0.141001756306301 | -0.634714253124348 | 0.352710488174024  occ= 1
MO #10  energy= -0.141001710488815 | -0.634714199230602 | 0.352710518308762  occ= 1
MO #11  energy= 0.0195248418505305 | 0.0180430246272033 | 0.0210066590738556 occ= 0
MO #12  energy= 0.0195248460705972 | 0.0180430300195996 | 0.0210066621215941 occ= 0
MO #13  energy= 0.0195248467397324 | 0.0180430158450373 | 0.0210066776344267 occ= 0
MO #14  energy= 0.0235100602641898 | 0.0228367284682273 | 0.0241833920582818 occ= 0
MO #15  energy= 0.0637546954296206 | 0.0598772503035607 | 0.0676321405556781 occ= 0
MO #16  energy= 0.0637547129453509 | 0.0598772675660481 | 0.0676321583246518 occ= 0
MO #17  energy= 0.0637547154715855 | 0.0598772224277668 | 0.0676322085154019 occ= 0
MO #18  energy= 0.0735404814581576 | 0.0733720774044193 | 0.0737088939495497 occ= 0
MO #19  energy= 0.0735404851156292 | 0.0733720815812389 | 0.0737089003847455 occ= 0
MO #20  energy= 0.073540491647212  | 0.0733720886549853 | 0.0737089092522626 occ= 0
MO #21  energy= 0.0735405077247016 | 0.0733721051808468 | 0.0737089259169306 occ= 0
MO #22  energy= 0.073540508735902  | 0.073372105829544  | 0.0737089253252387 occ= 0
MO #23  energy= 0.1966841531924    | 0.189784112768278  | 0.203584193610356  occ= 0
MO #24  energy= 0.224255978300961  | 0.21936868551415   | 0.229143254221198  occ= 0
MO #25  energy= 0.224255991827832  | 0.219368698292857  | 0.229143270024853  occ= 0
MO #26  energy= 0.224256018510063  | 0.219368725139368  | 0.229143297672314  occ= 0
MO #27  energy= 0.224256021249907  | 0.219368752515133  | 0.22914333657599   occ= 0
MO #28  energy= 0.224256032019231  | 0.219368755389651  | 0.22914332549119   occ= 0
MO #29  energy= 0.269375433141754  | 0.252318078108836  | 0.286432788174681  occ= 0
MO #30  energy= 0.269375445209602  | 0.25231792521162   | 0.286432965207585  occ= 0
MO #31  energy= 0.269375479426983  | 0.25231810725806   | 0.286432851595908  occ= 0
MO #32  energy= 1.38075615733874   | 1.28621589667776   | 1.47529667106902   occ= 0
MO #33  energy= 1.38075622898464   | 1.28621597877872   | 1.47529666389405   occ= 0
MO #34  energy= 1.3807562464797    | 1.28621600554063   | 1.47529671773964   occ= 0
MO #35  energy= 1.38075629679997   | 1.28621598781235   | 1.4752967053659    occ= 0
MO #36  energy= 1.38075645572393   | 1.28621613008965   | 1.47529682378808   occ= 0
MO #37  energy= 1.77183240011882   | 1.70936409531282   | 1.83430070492702   occ= 0
MO #38  energy= 3.09394653103599   | 3.00643603071363   | 3.18145703135833   occ= 0
MO #39  energy= 3.09394661334204   | 3.00643615759815   | 3.18145706908593   occ= 0
MO #40  energy= 3.09394670292495   | 3.00643622157602   | 3.18145718427387   occ= 0
MO #41  energy= 3.18450344146337   | 3.08174725074103   | 3.2872596321857    occ= 0
MO #42  energy= 3.18450344159041   | 3.08174725345733   | 3.2872596297235    occ= 0
MO #43  energy= 3.18450353039356   | 3.0817474059065    | 3.28725965488063   occ= 0
MO #44  energy= 3.18450353579331   | 3.08174736363103   | 3.28725970795559   occ= 0
MO #45  energy= 3.18450357948575   | 3.08174748046201   | 3.28725967850949   occ= 0
MO #46  energy= 3.1845036207045    | 3.08174741312693   | 3.28725982828206   occ= 0
MO #47  energy= 3.1845036282431    | 3.08174744845849   | 3.2872598080277    occ= 0
MO #48  energy= 8.56149705607728   | 8.44774603977656   | 8.67524807237803   occ= 0
MO #49  energy= 8.56149706233655   | 8.44774606264013   | 8.67524806203295   occ= 0
MO #50  energy= 8.56149712215675   | 8.44774605556606   | 8.67524818874745   occ= 0
MO #51  energy= 8.56149717079618   | 8.44774617659093   | 8.67524816500143   occ= 0
MO #52  energy= 8.56149717316781   | 8.44774611912301   | 8.67524822721261   occ= 0
MO #53  energy= 8.5614972755532    | 8.44774629780592   | 8.67524825330046   occ= 0
MO #54  energy= 8.56149727717883   | 8.44774630520652   | 8.67524824915115   occ= 0
 ** Mulliken pop on meta-lowdin orthogonal AOs  **
 ** Mulliken pop  **
pop of  0Mn 3s        1.99998
pop of  0Mn 4s        1.99895
pop of  0Mn 5s        0.00035
pop of  0Mn 6s        0.00052
pop of  0Mn 7s        0.00019
pop of  0Mn 3px       1.99994
pop of  0Mn 3py       1.99994
pop of  0Mn 3pz       1.99994
pop of  0Mn 4px       0.00005
pop of  0Mn 4py       0.00005
pop of  0Mn 4pz       0.00005
pop of  0Mn 5px       0.00001
pop of  0Mn 5py       0.00001
pop of  0Mn 5pz       0.00001
pop of  0Mn 6px       0.00000
pop of  0Mn 6py       0.00000
pop of  0Mn 6pz       0.00000
pop of  0Mn 7px       0.00000
pop of  0Mn 7py       0.00000
pop of  0Mn 7pz       0.00000
pop of  0Mn 3dxy      0.99661
pop of  0Mn 3dyz      0.99661
pop of  0Mn 3dz^2     0.99661
pop of  0Mn 3dxz      0.99661
pop of  0Mn 3dx2-y2    0.99661
pop of  0Mn 4dxy      0.00242
pop of  0Mn 4dyz      0.00242
pop of  0Mn 4dz^2     0.00242
pop of  0Mn 4dxz      0.00242
pop of  0Mn 4dx2-y2    0.00242
pop of  0Mn 5dxy      0.00096
pop of  0Mn 5dyz      0.00096
pop of  0Mn 5dz^2     0.00096
pop of  0Mn 5dxz      0.00096
pop of  0Mn 5dx2-y2    0.00096
pop of  0Mn 6dxy      0.00002
pop of  0Mn 6dyz      0.00002
pop of  0Mn 6dz^2     0.00002
pop of  0Mn 6dxz      0.00002
pop of  0Mn 6dx2-y2    0.00002
pop of  0Mn 4fy^3     0.00000
pop of  0Mn 4fxyz     0.00000
pop of  0Mn 4fyz^2    0.00000
pop of  0Mn 4fz^3     0.00000
pop of  0Mn 4fxz^2    0.00000
pop of  0Mn 4fzx^2    0.00000
pop of  0Mn 4fx^3     0.00000
pop of  0Mn 5fy^3     0.00000
pop of  0Mn 5fxyz     0.00000
pop of  0Mn 5fyz^2    0.00000
pop of  0Mn 5fz^3     0.00000
pop of  0Mn 5fxz^2    0.00000
pop of  0Mn 5fzx^2    0.00000
pop of  0Mn 5fx^3     0.00000
 ** Mulliken atomic charges  **
charge of  0Mn =      0.00000

******** <class 'pyscf.mcscf.mc1step.CASSCF'> flags ********
CAS (6e+1e, 6o), ncore = 4, nvir = 44
max_cycle_macro = 50
max_cycle_micro = 4
conv_tol = 1e-07
conv_tol_grad = None
orbital rotation max_stepsize = 0.02
augmented hessian ah_max_cycle = 30
augmented hessian ah_conv_tol = 1e-12
augmented hessian ah_linear dependence = 1e-14
augmented hessian ah_level shift = 0
augmented hessian ah_start_tol = 2.5
augmented hessian ah_start_cycle = 3
augmented hessian ah_grad_trust_region = 3
kf_trust_region = 3
kf_interval = 4
ci_response_space = 4
ci_grad_trust_region = 3
with_dep4 0
natorb = False
canonicalization = True
chkfile = ./scratch/76969/tmpOQoX8k
max_memory 4000 MB (current use 97 MB)
internal_rotation = False

******** SHCI flags ********
executable             = /home/bamu3429/softwares/dice/Dice
mpiprefix              = mpirun -np 28
scratchDirectory       = ./scratch/76969
integralFile           = ./FCIDUMP
configFile             = ./input.dat
outputFile             = ./output.dat
maxIter                = 6
sweep_iter             = []
sweep_epsilon          = []
nPTiter                = 0
Stochastic             = True
fullrestart            = False
restart                = False
num_thrds              = 12
memory                 = None

CASCI E = -103.515039594146  S^2 = 8.7500000
Set conv_tol_grad to 0.000316228
macro iter 1 (1 JK  1 micro), CASSCF E = -103.515039594146  dE = 0  S^2 = 8.7500000
               |grad[o]|=3.52e-06  |grad[c]|= None  |ddm|=    0
1-step CASSCF converged in 1 macro (1 JK 1 micro) steps
CASSCF canonicalization
CASSCF energy = -103.515039594146


--------------------------------------------------
                 ICMPSPT CALCULATION              
--------------------------------------------------

Perturbation type: MRLCC
With fully internally contracted scheme
With third order correction

Preparing necessary RDMs
......production of RDMs took       0.44 sec
Reading binary 4RDM from DICE
......reading the RDM took          0.95 sec

(GOOD) Trace 4RDM:    840.0 =    7*    6*    5*    4
(GOOD) Trace 3RDM:    210.0 =    7*    6*    5
(GOOD) Trace 2RDM:     42.0 =    7*    6
(GOOD) Trace 1RDM:      7.0 =    7

Producing the integrals
......production of INT took      87.06 sec

Energy_core =  -88.4441210306
Energy      =  -103.515039594

WARNING: Have to use natural orbitals from CAASCF
         offdiagonal elements: 0.64376642505

Basic ingredients written to int/
......savings of INGREDIENTS took      15.07 sec

Second-order:
perturber CCVV --        -0.071570028
perturber CCAV --        -0.041056355
perturber ACVV --        -0.107037211
perturber CCAA --        -0.028142973
perturber AAVV --        -0.119641196
perturber CAAV --        -0.101262179
perturber AAAV --        -0.003483345
perturber AAAC --        -0.000000000
Total:                   -0.472193286

Third-order:              0.001267660

Total PT       --        -0.470925626

