 &FCI NORB=9 ,NELEC=7 ,MS2=1,
  ORBSYM=1,1,1,1,1,1,1,1,1,
  ISYM=1,
 &END
  6.508801606607e-01    1  1  1  1
  2.943564705628e-02    2  1  2  1
  5.793778577427e-01    2  2  1  1
  6.285661934588e-01    2  2  2  2
  2.943564705629e-02    3  1  3  1
 -1.069880327285e-08    3  2  2  2
  2.802619396524e-02    3  2  3  2
  5.793778577428e-01    3  3  1  1
  5.725137906081e-01    3  3  2  2
  1.069875544364e-08    3  3  3  2
  6.285661934589e-01    3  3  3  3
  2.320360309954e-02    4  1  1  1
  1.855099287857e-02    4  1  2  2
  1.855099287857e-02    4  1  3  3
  3.624793800090e-03    4  1  4  1
  7.389462881701e-05    4  2  2  1
 -5.069890928082e-07    4  2  3  1
  1.540279118548e-03    4  2  4  2
  5.069890924417e-07    4  3  2  1
  7.389462881741e-05    4  3  3  1
  1.540279118547e-03    4  3  4  3
  2.112014035301e-01    4  4  1  1
  1.971173649680e-01    4  4  2  2
  1.971173649680e-01    4  4  3  3
 -1.293434798070e-03    4  4  4  1
  2.486510840913e-01    4  4  4  4
 -6.565186572498e-03    5  1  2  1
 -9.159669587443e-03    5  1  3  1
 -3.837017502209e-04    5  1  4  2
 -5.358164998621e-04    5  1  4  3
  1.380910579524e-02    5  1  5  1
 -8.824668741876e-02    5  2  1  1
 -1.079168329231e-01    5  2  2  2
 -9.331125445237e-03    5  2  3  2
 -9.454086420835e-02    5  2  3  3
 -2.486964740411e-03    5  2  4  1
  1.389079883456e-02    5  2  4  4
  6.210333385306e-02    5  2  5  2
 -1.232081040859e-01    5  3  1  1
 -1.319971490427e-01    5  3  2  2
 -6.687984112097e-03    5  3  3  2
 -1.506594083999e-01    5  3  3  3
 -3.472244859151e-03    5  3  4  1
  1.938785160449e-02    5  3  4  4
  6.792591107478e-02    5  3  5  2
  1.082930218868e-01    5  3  5  3
 -1.376586981193e-03    5  4  2  1
 -1.922188933329e-03    5  4  3  1
  1.339260737638e-03    5  4  4  2
  1.868734154712e-03    5  4  4  3
 -6.077850667878e-05    5  4  5  1
  4.830934119728e-03    5  4  5  4
  5.118849832952e-01    5  5  1  1
  4.990174603739e-01    5  5  2  2
  1.695439920701e-02    5  5  3  2
  5.105491246104e-01    5  5  3  3
  1.790731903332e-02    5  5  4  1
  2.309410635066e-01    5  5  4  4
 -6.187072526528e-02    5  5  5  2
 -8.640099943168e-02    5  5  5  3
  5.080118246909e-01    5  5  5  5
 -9.159669587445e-03    6  1  2  1
  6.565186572495e-03    6  1  3  1
 -5.358164998620e-04    6  1  4  2
  3.837017502210e-04    6  1  4  3
 -9.504407550479e-07    6  1  5  4
  1.380910579524e-02    6  1  6  1
 -1.232081040859e-01    6  2  1  1
 -1.506594083999e-01    6  2  2  2
  6.687984112122e-03    6  2  3  2
 -1.319971490428e-01    6  2  3  3
 -3.472244859151e-03    6  2  4  1
  1.938785160449e-02    6  2  4  4
  6.792591331962e-02    6  2  5  2
  8.138604009264e-02    6  2  5  3
 -7.711774316613e-02    6  2  5  5
  1.082930218868e-01    6  2  6  2
  8.824668741876e-02    6  3  1  1
  9.454086420832e-02    6  3  2  2
 -9.331125445264e-03    6  3  3  2
  1.079168329231e-01    6  3  3  3
  2.486964740411e-03    6  3  4  1
 -1.389079883454e-02    6  3  4  4
 -3.519638862649e-02    6  3  5  2
 -6.792591331960e-02    6  3  5  3
  5.523006517327e-02    6  3  5  5
 -6.792591107477e-02    6  3  6  2
  6.210333385304e-02    6  3  6  3
 -1.922188933329e-03    6  4  2  1
  1.376586981193e-03    6  4  3  1
  1.868734154712e-03    6  4  4  2
 -1.339260737637e-03    6  4  4  3
  9.504407561088e-07    6  4  5  1
 -6.077850667912e-05    6  4  6  1
  4.830934119729e-03    6  4  6  4
  1.695440168637e-02    6  5  2  2
  5.765802158944e-03    6  5  3  2
 -1.695440168635e-02    6  5  3  3
 -4.641680663548e-03    6  5  5  2
  3.320295886442e-03    6  5  5  3
 -6.516516496037e-08    6  5  5  5
 -3.320295886453e-03    6  5  6  2
 -4.641680663537e-03    6  5  6  3
  1.794625310561e-02    6  5  6  5
  5.118849832952e-01    6  6  1  1
  5.105491246103e-01    6  6  2  2
 -1.695439920703e-02    6  6  3  2
  4.990174603740e-01    6  6  3  3
  1.790731903332e-02    6  6  4  1
  2.309410635066e-01    6  6  4  4
 -5.523006517326e-02    6  6  5  2
 -7.711774316612e-02    6  6  5  3
  4.721192365913e-01    6  6  5  5
 -8.640099943167e-02    6  6  6  2
  6.187072526529e-02    6  6  6  3
  6.516519759540e-08    6  6  6  5
  5.080118246909e-01    6  6  6  6
 -6.424559021890e-02    7  1  1  1
 -4.488601919385e-02    7  1  2  2
 -4.488601919385e-02    7  1  3  3
 -4.896509855790e-03    7  1  4  1
 -2.789514127534e-02    7  1  4  4
  1.550025685827e-02    7  1  5  2
  2.165621910869e-02    7  1  5  3
 -6.968958897059e-02    7  1  5  5
  2.165621910868e-02    7  1  6  2
 -1.550025685829e-02    7  1  6  3
 -6.968958897059e-02    7  1  6  6
  7.708646758152e-02    7  1  7  1
  3.864082489346e-03    7  2  2  1
  7.591355252334e-07    7  2  3  1
 -7.603734045823e-04    7  2  4  2
  4.294476426792e-07    7  2  4  3
  3.257454900225e-03    7  2  5  1
 -1.423295877054e-03    7  2  5  4
  4.555376001279e-03    7  2  6  1
 -1.987156394112e-03    7  2  6  4
  1.535295770735e-02    7  2  7  2
 -7.591355239988e-07    7  3  2  1
  3.864082489347e-03    7  3  3  1
 -4.294476432944e-07    7  3  4  2
 -7.603734045827e-04    7  3  4  3
  4.555376001281e-03    7  3  5  1
 -1.987156394114e-03    7  3  5  4
 -3.257454900229e-03    7  3  6  1
  1.423295877055e-03    7  3  6  4
  1.535295770736e-02    7  3  7  3
 -2.331911905388e-02    7  4  1  1
 -2.031073561522e-02    7  4  2  2
 -2.031073561523e-02    7  4  3  3
 -3.450779477932e-03    7  4  4  1
 -1.350794031513e-03    7  4  4  4
  1.803291671349e-04    7  4  5  2
  2.524013428649e-04    7  4  5  3
 -2.267244450950e-02    7  4  5  5
  2.524013428674e-04    7  4  6  2
 -1.803291671348e-04    7  4  6  3
 -2.267244450950e-02    7  4  6  6
  4.241120625242e-03    7  4  7  1
  4.317155880383e-03    7  4  7  4
  4.408047296361e-03    7  5  2  1
  6.161037730287e-03    7  5  3  1
 -4.825155073120e-04    7  5  4  2
 -6.737363306747e-04    7  5  4  3
 -6.106632206222e-03    7  5  5  1
 -1.224216962844e-03    7  5  5  4
  3.344699205113e-07    7  5  6  1
  6.373287651009e-07    7  5  6  4
 -1.616050071596e-03    7  5  7  2
 -2.254359146508e-03    7  5  7  3
  1.002609277175e-02    7  5  7  5
  6.161037730284e-03    7  6  2  1
 -4.408047296366e-03    7  6  3  1
 -6.737363306732e-04    7  6  4  2
  4.825155073128e-04    7  6  4  3
 -3.344699226633e-07    7  6  5  1
 -6.373287615570e-07    7  6  5  4
 -6.106632206222e-03    7  6  6  1
 -1.224216962843e-03    7  6  6  4
 -2.254359146510e-03    7  6  7  2
  1.616050071593e-03    7  6  7  3
  1.002609277175e-02    7  6  7  6
  5.356268991005e-01    7  7  1  1
  4.918324447372e-01    7  7  2  2
  4.918324447372e-01    7  7  3  3
  1.661589974131e-02    7  7  4  1
  2.013953627796e-01    7  7  4  4
 -6.547500134638e-02    7  7  5  2
 -9.142076426687e-02    7  7  5  3
  4.492165271805e-01    7  7  5  5
 -9.142076426687e-02    7  7  6  2
  6.547500134638e-02    7  7  6  3
  4.492165271805e-01    7  7  6  6
 -3.705176773131e-02    7  7  7  1
 -2.074810814458e-02    7  7  7  4
  5.051066359005e-01    7  7  7  7
 -1.808122537843e-01    8  1  1  1
 -1.717702287324e-01    8  1  2  2
 -1.717702287324e-01    8  1  3  3
 -5.703342685399e-03    8  1  4  1
  3.343890779658e-02    8  1  4  4
  8.340949236050e-02    8  1  5  2
  1.164541810118e-01    8  1  5  3
 -9.042332626258e-02    8  1  5  5
  1.164541810118e-01    8  1  6  2
 -8.340949236048e-02    8  1  6  3
 -9.042332626257e-02    8  1  6  6
  3.411697679847e-02    8  1  7  1
  1.057691198773e-03    8  1  7  4
 -1.207785726124e-01    8  1  7  7
  1.919348026994e-01    8  1  8  1
 -1.287354680513e-02    8  2  2  1
  1.768911378530e-06    8  2  3  1
 -1.194239726305e-03    8  2  4  2
 -1.080053568750e-08    8  2  4  3
  7.149207124223e-03    8  2  5  1
  2.293331472057e-04    8  2  5  4
  9.981068593532e-03    8  2  6  1
  3.203115916810e-04    8  2  6  4
  2.939076847224e-03    8  2  7  2
  1.192378503051e-06    8  2  7  3
 -3.891068302934e-03    8  2  7  5
 -5.435241824217e-03    8  2  7  6
  1.564888610545e-02    8  2  8  2
 -1.768911374697e-06    8  3  2  1
 -1.287354680514e-02    8  3  3  1
  1.080053561791e-08    8  3  4  2
 -1.194239726306e-03    8  3  4  3
  9.981068593532e-03    8  3  5  1
  3.203115916804e-04    8  3  5  4
 -7.149207124222e-03    8  3  6  1
 -2.293331472056e-04    8  3  6  4
 -1.192378503864e-06    8  3  7  2
  2.939076847225e-03    8  3  7  3
 -5.435241824216e-03    8  3  7  5
  3.891068302934e-03    8  3  7  6
  1.564888610545e-02    8  3  8  3
  1.907729389593e-03    8  4  1  1
  6.245173319644e-04    8  4  2  2
  6.245173319607e-04    8  4  3  3
  3.144443715823e-03    8  4  4  1
 -3.078335159871e-04    8  4  4  4
  4.825268957019e-03    8  4  5  2
  6.735836405114e-03    8  4  5  3
  7.763991707489e-03    8  4  5  5
  6.735836405116e-03    8  4  6  2
 -4.825268957016e-03    8  4  6  3
  7.763991707490e-03    8  4  6  6
  1.410653765235e-04    8  4  7  1
 -4.008677126891e-03    8  4  7  4
  5.811873088997e-03    8  4  7  7
  1.158492900318e-02    8  4  8  1
  5.959648549953e-03    8  4  8  4
  1.091241506809e-02    8  5  2  1
  1.523679865600e-02    8  5  3  1
  7.527644769457e-05    8  5  4  2
  1.052938709368e-04    8  5  4  3
 -7.092057079984e-03    8  5  5  1
 -1.878145732543e-03    8  5  5  4
  2.458914726215e-06    8  5  6  1
  2.040982387580e-08    8  5  6  4
 -1.308601145521e-03    8  5  7  2
 -1.829299341650e-03    8  5  7  3
  4.190387433008e-03    8  5  7  5
  1.347484877396e-06    8  5  7  6
 -5.060999662195e-03    8  5  8  2
 -7.068422382055e-03    8  5  8  3
  1.832208501397e-02    8  5  8  5
  1.523679865600e-02    8  6  2  1
 -1.091241506809e-02    8  6  3  1
  1.052938709373e-04    8  6  4  2
 -7.527644769451e-05    8  6  4  3
 -2.458914730288e-06    8  6  5  1
 -2.040982276757e-08    8  6  5  4
 -7.092057079983e-03    8  6  6  1
 -1.878145732542e-03    8  6  6  4
 -1.829299341652e-03    8  6  7  2
  1.308601145520e-03    8  6  7  3
 -1.347484880400e-06    8  6  7  5
  4.190387433009e-03    8  6  7  6
 -7.068422382055e-03    8  6  8  2
  5.060999662197e-03    8  6  8  3
  1.832208501397e-02    8  6  8  6
  1.124781641327e-01    8  7  1  1
  1.156166608477e-01    8  7  2  2
  1.156166608477e-01    8  7  3  3
  2.434820825481e-03    8  7  4  1
 -4.170389800321e-02    8  7  4  4
 -6.632389552750e-02    8  7  5  2
 -9.259829058094e-02    8  7  5  3
  4.353669269172e-02    8  7  5  5
 -9.259829058095e-02    8  7  6  2
  6.632389552748e-02    8  7  6  3
  4.353669269172e-02    8  7  6  6
 -1.508288449328e-02    8  7  7  1
  2.065863471243e-03    8  7  7  4
  7.882726287924e-02    8  7  7  7
 -1.553894625968e-01    8  7  8  1
 -1.151755019125e-02    8  7  8  4
  1.476609376099e-01    8  7  8  7
  5.931242169482e-01    8  8  1  1
  5.212745528225e-01    8  8  2  2
  5.212745528225e-01    8  8  3  3
  2.295337908750e-02    8  8  4  1
  2.439658863103e-01    8  8  4  4
 -6.012842650457e-02    8  8  5  2
 -8.396583889157e-02    8  8  5  3
  5.180328776029e-01    8  8  5  5
 -8.396583889156e-02    8  8  6  2
  6.012842650458e-02    8  8  6  3
  5.180328776029e-01    8  8  6  6
 -1.080887482356e-01    8  8  7  1
 -2.668703944156e-02    8  8  7  4
  5.099807552561e-01    8  8  7  7
 -1.140735125614e-01    8  8  8  1
  7.988401041752e-03    8  8  8  4
  4.911974874166e-02    8  8  8  7
  6.188317580008e-01    8  8  8  8
 -8.036704663070e-11    9  1  1  1
  3.871874847731e-06    9  1  2  2
 -7.412504187566e-07    9  1  3  2
 -3.871889649870e-06    9  1  3  3
 -1.176872395636e-11    9  1  4  1
 -5.152340617260e-12    9  1  4  4
 -1.343588433371e-05    9  1  5  2
  2.935656907602e-05    9  1  5  3
  3.394169918066e-05    9  1  5  5
 -2.935660006080e-05    9  1  6  2
 -1.343586218044e-05    9  1  6  3
 -5.928603426806e-05    9  1  6  5
 -3.394167360739e-05    9  1  6  6
  2.366793085768e-11    9  1  7  1
  5.802390786512e-11    9  1  7  7
  2.757982903730e-11    9  1  8  1
  2.059287989634e-11    9  1  8  4
 -2.188358113336e-11    9  1  8  7
 -5.445266556331e-11    9  1  8  8
  7.715937002933e-06    9  1  9  1
  1.232507776710e-04    9  2  2  1
 -2.401758967510e-05    9  2  3  1
 -7.932257477006e-05    9  2  4  2
  1.549504750305e-05    9  2  4  3
  3.297912781112e-05    9  2  5  1
 -6.599028035430e-05    9  2  5  4
  7.217750953840e-05    9  2  6  1
 -1.442637217268e-04    9  2  6  4
  1.687397115567e-04    9  2  7  2
 -3.284631959691e-05    9  2  7  3
  2.784106975658e-05    9  2  7  5
  6.097106524098e-05    9  2  7  6
 -2.647630467948e-05    9  2  8  2
  5.093601370004e-06    9  2  8  3
  4.342354710982e-05    9  2  8  5
  9.489361288105e-05    9  2  8  6
  1.696524798931e-05    9  2  9  2
 -2.401758967829e-05    9  3  2  1
 -1.232507413917e-04    9  3  3  1
  1.549504749635e-05    9  3  4  2
  7.932255576608e-05    9  3  4  3
 -7.217750755621e-05    9  3  5  1
  1.442636962551e-04    9  3  5  4
  3.297912640154e-05    9  3  6  1
 -6.599026211104e-05    9  3  6  4
 -3.284631960146e-05    9  3  7  2
 -1.687396563149e-04    9  3  7  3
 -6.097105204647e-05    9  3  7  5
  2.784106033407e-05    9  3  7  6
  5.093601374796e-06    9  3  8  2
  2.647629033071e-05    9  3  8  3
 -9.489358805164e-05    9  3  8  5
  4.342352932344e-05    9  3  8  6
  1.696524300121e-05    9  3  9  3
  4.188494974707e-12    9  4  1  1
 -2.593664913561e-04    9  4  2  2
  5.051701965664e-05    9  4  3  2
  2.593664439235e-04    9  4  3  3
 -3.305854910728e-12    9  4  4  1
  1.094233340458e-10    9  4  4  4
 -1.020853326942e-04    9  4  5  2
  2.232710864106e-04    9  4  5  3
  2.248414721595e-04    9  4  5  5
 -2.232709899820e-04    9  4  6  2
 -1.020854017818e-04    9  4  6  3
 -3.926909831375e-04    9  4  6  5
 -2.248413664270e-04    9  4  6  6
 -4.433479422187e-11    9  4  7  1
  2.503924393122e-11    9  4  7  7
  9.906586063931e-11    9  4  8  1
  2.562504393458e-12    9  4  8  4
 -1.019507543929e-10    9  4  8  7
  8.171405706090e-11    9  4  8  8
  4.650415017114e-06    9  4  9  1
  2.799967641841e-04    9  4  9  4
  7.154553991342e-05    9  5  2  1
 -1.563168816885e-04    9  5  3  1
 -5.816372898280e-05    9  5  4  2
  1.271686529310e-04    9  5  4  3
 -4.730416490126e-05    9  5  5  1
  1.272644384655e-04    9  5  5  4
  8.247125399503e-05    9  5  6  1
 -2.222862146032e-04    9  5  6  4
  7.274155582603e-05    9  5  7  2
 -1.589673287419e-04    9  5  7  3
 -4.019569330805e-05    9  5  7  5
  7.005918287915e-05    9  5  7  6
  1.925778330230e-05    9  5  8  2
 -4.211055837047e-05    9  5  8  3
 -8.344931044906e-05    9  5  8  5
  1.457356509092e-04    9  5  8  6
  1.449571220041e-05    9  5  9  2
  2.022954191559e-05    9  5  9  3
  4.226146114727e-05    9  5  9  5
  1.563168900810e-04    9  6  2  1
  7.154553390319e-05    9  6  3  1
 -1.271686606288e-04    9  6  4  2
 -5.816372346651e-05    9  6  4  3
  8.247125398779e-05    9  6  5  1
 -2.222862146087e-04    9  6  5  4
  4.730418854790e-05    9  6  6  1
 -1.272644622519e-04    9  6  6  4
  1.589673553871e-04    9  6  7  2
  7.274153676593e-05    9  6  7  3
  7.005918287108e-05    9  6  7  5
  4.019569167193e-05    9  6  7  6
  4.211056708989e-05    9  6  8  2
  1.925777705453e-05    9  6  8  3
  1.457356509132e-04    9  6  8  5
  8.344932503797e-05    9  6  8  6
  2.022954663385e-05    9  6  9  2
 -1.449571004229e-05    9  6  9  3
  2.565618684804e-12    9  6  9  5
  4.226146408661e-05    9  6  9  6
  5.548835888064e-11    9  7  1  1
  1.025075951421e-04    9  7  2  2
 -1.994786747593e-05    9  7  3  2
 -1.025074308176e-04    9  7  3  3
 -3.491628784773e-12    9  7  4  1
 -1.344605767873e-11    9  7  4  4
  3.066218697587e-05    9  7  5  2
 -6.709371103487e-05    9  7  5  3
 -7.497592100487e-05    9  7  5  5
  6.709363837545e-05    9  7  6  2
  3.066223906037e-05    9  7  6  3
  1.309320689475e-04    9  7  6  5
  7.497591711663e-05    9  7  6  6
  3.961912602334e-11    9  7  7  1
  6.358750932787e-12    9  7  7  4
  2.768769160751e-12    9  7  7  7
 -8.579496618553e-11    9  7  8  1
 -2.248872822326e-11    9  7  8  4
  7.471414540058e-11    9  7  8  7
 -1.948802269135e-11    9  7  8  8
 -4.626664246829e-06    9  7  9  1
  6.952038012132e-06    9  7  9  4
  1.036290142810e-05    9  7  9  7
  5.703860277489e-11    9  8  1  1
 -6.371638760464e-05    9  8  2  2
  1.240192789199e-05    9  8  3  2
  6.371638531305e-05    9  8  3  3
  2.699648513850e-11    9  8  4  1
  6.221455605837e-11    9  8  4  4
 -2.762604859550e-05    9  8  5  2
  6.042144266381e-05    9  8  5  3
  7.532594146767e-05    9  8  5  5
 -6.042128646352e-05    9  8  6  2
 -2.762616046767e-05    9  8  6  3
 -1.315712253976e-04    9  8  6  5
 -7.532578097666e-05    9  8  6  6
 -7.065786751418e-11    9  8  7  1
 -2.652921562409e-11    9  8  7  4
  2.777204879845e-12    9  8  7  7
  8.632291039133e-11    9  8  8  1
  1.751928291836e-11    9  8  8  4
 -1.099053855111e-10    9  8  8  7
  1.476354350752e-10    9  8  8  8
  1.102414177360e-05    9  8  9  1
  2.253122246339e-05    9  8  9  4
 -8.453592306017e-06    9  8  9  7
  1.866268118148e-05    9  8  9  8
  7.416093454138e-02    9  9  1  1
  7.423252995388e-02    9  9  2  2
  7.423252995085e-02    9  9  3  3
  8.580015300355e-05    9  9  4  1
  7.524269050817e-02    9  9  4  4
  3.426871366052e-04    9  9  5  2
  4.783448233095e-04    9  9  5  3
  7.490181430117e-02    9  9  5  5
  4.783448241711e-04    9  9  6  2
 -3.426871362119e-04    9  9  6  3
  7.490181430221e-02    9  9  6  6
 -6.375846030832e-04    9  9  7  1
 -1.303878787576e-04    9  9  7  4
  7.361446886388e-02    9  9  7  7
  4.602319579121e-04    9  9  8  1
  1.953649203641e-04    9  9  8  4
 -7.730731763069e-04    9  9  8  7
  7.474573795651e-02    9  9  8  8
  1.776214977033e-12    9  9  9  8
  7.025927532982e-02    9  9  9  9
 -3.531706792199e+00    1  1  0  0
 -3.464456798179e+00    2  2  0  0
 -3.464456798179e+00    3  3  0  0
 -9.540590878407e-02    4  1  0  0
 -1.448033671554e+00    4  4  0  0
  4.234767830502e-01    5  2  0  0
  5.909873794928e-01    5  3  0  0
 -2.583035878149e+00    5  5  0  0
  5.909873794929e-01    6  2  0  0
 -4.234767830500e-01    6  3  0  0
 -2.583035878149e+00    6  6  0  0
  2.386912857721e-01    7  1  0  0
  1.134792992952e-01    7  4  0  0
 -1.534105860980e+00    7  7  0  0
  7.677391943387e-01    8  1  0  0
 -2.248571106072e-02    8  4  0  0
  6.408712282966e-02    8  7  0  0
 -2.528578807351e+00    8  8  0  0
  1.807057353465e-10    9  1  0  0
  2.461059565429e-11    9  4  0  0
 -3.919188396888e-10    9  7  0  0
 -1.612398000736e-10    9  8  0  0
 -4.920901887044e-01    9  9  0  0
    -49.316661082909   0  0  0  0
