#INFO: **** input file is /projects/bamu3429/BENCHMARK/fresh_atoms/MRPT/vtz/monoxides/ScO/mrpt.py ****
import json
from pyscf import gto,scf,mcscf, fci, lo, ci, cc
from pyscf.scf import ROHF, UHF,ROKS
import numpy as np
import pandas as pd

# THIS IS WERE IT STARTS ====================================

df=json.load(open("../../../trail.json"))

spins={'ScO':1, 'TiO':2, 'VO':3, 'CrO':4, 'MnO':5, 'FeO':4, 'CuO':1}

nd={'Sc':(1,0), 'Ti':(2,0), 'V':(3,0), 'Cr':(5,0), 'Mn':(5,0), 'Fe':(5,1), 'Cu':(5,4)}

cas={'Sc':3, 'Ti':4, 'V':5, 'Cr':6, 'Mn':7, 'Fe':8, 'Cu':11}

re={'ScO':1.668, 'TiO':1.623, 'VO':1.591, 'CrO':1.621, 'MnO':1.648, 'FeO':1.616, 'CuO':1.725}

datacsv={}
for nm in ['basis','charge','method','molecule','pseudopotential',
           'totalenergy','totalenergy-stocherr','totalenergy-syserr']:
  datacsv[nm]=[]

basis='vtz'
element='Sc'

mol=gto.Mole()
mol.ecp={}
mol.basis={}
for el in [element,'O']:
  mol.ecp[el]=gto.basis.parse_ecp(df[el]['ecp'])
  mol.basis[el]=gto.basis.parse(df[el][basis])
mol.charge=0
mol.spin=spins[element+'O']
mol.build(atom="%s 0. 0. 0.; O 0. 0. %g"%(element,re[element+'O']),verbose=4)

m=ROHF(mol)
m.level_shift=1000.0
dm=m.from_chk("../../../../HF/monoxides/"+element+basis+"0.chk")
hf=m.kernel(dm)
m.analyze()

from pyscf.shciscf import shci
mc = shci.SHCISCF(m, 9, 4+cas[element])
#mc.fcisolver.conv_tol = 1e-14
mc.fcisolver.mpiprefix="srun -n20"
mc.fcisolver.num_thrds=12
mc.verbose = 4
cas=mc.kernel()[0]
 
from pyscf.icmpspt import icmpspt
pt=icmpspt.icmpspt(mc,rdmM=500, PTM=1000,\
                          pttype="MRLCC",\
                          third_order=True,\
                          fully_ic=True,\
                          do_dm4=True)

datacsv['basis'].append(basis)
datacsv['charge'].append(0)
datacsv['method'].append('MRPT')
datacsv['molecule'].append(element)
datacsv['pseudopotential'].append('trail')
datacsv['totalenergy'].append(cas+pt)
datacsv['totalenergy-stocherr'].append(0.0)
datacsv['totalenergy-syserr'].append(0.0)
pd.DataFrame(datacsv).to_csv(element+".csv",index=False)

#INFO: ******************** input file end ********************


System: ('Linux', 'bnode0302.rc.int.colorado.edu', '3.10.0-514.41.1.el7.x86_64', '#1 SMP Wed Jan 17 10:26:16 EST 2018', 'x86_64', 'x86_64')  Threads 28
Python 2.7.11 (default, Mar 22 2016, 01:42:54) 
[GCC Intel(R) C++ gcc 4.8 mode]
numpy 1.11.1  scipy 0.17.1
Date: Wed Apr 18 17:11:22 2018
PySCF version 1.4.6
PySCF path  /projects/bamu3429/softwares/pyscf_uptodate/pyscf
GIT ORIG_HEAD f3591ef22170896a4cdc2aadaa6f5da388ffcadb
GIT HEAD      ref: refs/heads/master
GIT master branch  1847583fb1d2472321833d3c71c8b7008e5fabf5

[INPUT] VERBOSE 4
[INPUT] num atoms = 2
[INPUT] num electrons = 17
[INPUT] charge = 0
[INPUT] spin (= nelec alpha-beta = 2S) = 1
[INPUT] symmetry False subgroup None
[INPUT]  1 Sc     0.000000000000   0.000000000000   0.000000000000 AA    0.000000000000   0.000000000000   0.000000000000 Bohr
[INPUT]  2 O      0.000000000000   0.000000000000   1.668000000000 AA    0.000000000000   0.000000000000   3.152063175775 Bohr
[INPUT] ---------------- BASIS SET ---------------- 
[INPUT] l, kappa, [nprim/nctr], expnt,             c_1 c_2 ...
[INPUT] Sc
[INPUT] 0    0    [12   /1   ]  36.40041505       0.005374
                                19.41172108       -0.032266
                                7.76559262        0.361279
                                4.72233684        -0.858519
                                3.30202494        0.196889
                                1.73290764        0.133972
                                0.86033787        0.640189
                                0.4883664         0.334618
                                0.23725388        0.123744
                                0.10565308        -0.017421
                                0.04670613        0.010856
                                0.020926          -0.001573
[INPUT] 0    0    [12   /1   ]  36.40041505       -0.001039
                                19.41172108       0.006911
                                7.76559262        -0.089603
                                4.72233684        0.22876
                                3.30202494        -0.05839
                                1.73290764        -0.038559
                                0.86033787        -0.215849
                                0.4883664         -0.20849
                                0.23725388        -0.146275
                                0.10565308        0.350802
                                0.04670613        0.655178
                                0.020926          0.218601
[INPUT] 0    0    [12   /1   ]  36.40041505       -0.00175
                                19.41172108       0.017204
                                7.76559262        -0.309191
                                4.72233684        0.849279
                                3.30202494        -0.048406
                                1.73290764        -0.879531
                                0.86033787        -0.861793
                                0.4883664         0.451521
                                0.23725388        0.818867
                                0.10565308        0.713573
                                0.04670613        -0.620518
                                0.020926          -0.444725
[INPUT] 0    0    [12   /1   ]  36.40041505       0.001273
                                19.41172108       -0.019493
                                7.76559262        0.457296
                                4.72233684        -1.487759
                                3.30202494        0.341481
                                1.73290764        2.055667
                                0.86033787        0.444271
                                0.4883664         -2.657874
                                0.23725388        0.084156
                                0.10565308        1.920058
                                0.04670613        -0.403119
                                0.020926          -0.733418
[INPUT] 0    0    [1    /1   ]  0.020926             1
[INPUT] 0    0    [1    /1   ]  0.00937558           1
[INPUT] 1    0    [12   /1   ]  41.12697558       0.001162
                                22.43738592       -0.006345
                                11.2588519        0.030743
                                6.08582478        -0.083979
                                3.77549759        -0.031739
                                2.17906519        0.232763
                                1.07491872        0.420436
                                0.55241218        0.351975
                                0.2815094         0.143464
                                0.12312886        0.016009
                                0.0538551         0.000238
                                0.02355558        0.000253
[INPUT] 1    0    [12   /1   ]  41.12697558       -0.000251
                                22.43738592       0.001425
                                11.2588519        -0.007434
                                6.08582478        0.022493
                                3.77549759        0.004514
                                2.17906519        -0.065531
                                1.07491872        -0.124901
                                0.55241218        -0.130795
                                0.2815094         0.004026
                                0.12312886        0.357311
                                0.0538551         0.542386
                                0.02355558        0.222946
[INPUT] 1    0    [12   /1   ]  41.12697558       0.00062
                                22.43738592       -0.004736
                                11.2588519        0.034157
                                6.08582478        -0.121614
                                3.77549759        -0.12056
                                2.17906519        0.882214
                                1.07491872        0.368083
                                0.55241218        -0.900566
                                0.2815094         -0.579301
                                0.12312886        0.599454
                                0.0538551         0.442546
                                0.02355558        0.0067
[INPUT] 1    0    [12   /1   ]  41.12697558       0.002262
                                22.43738592       -0.014038
                                11.2588519        0.095759
                                6.08582478        -0.503141
                                3.77549759        0.622223
                                2.17906519        1.362984
                                1.07491872        -1.598889
                                0.55241218        -0.818793
                                0.2815094         1.67365
                                0.12312886        -0.091296
                                0.0538551         -0.629433
                                0.02355558        -0.001578
[INPUT] 1    0    [1    /1   ]  0.02355558           1
[INPUT] 1    0    [1    /1   ]  0.01030293           1
[INPUT] 2    0    [10   /1   ]  23.41055103       -0.002062
                                9.57667856        0.014373
                                5.80916551        0.096933
                                2.24207749        0.204502
                                1.03019541        0.261896
                                0.49142269        0.31382
                                0.21727354        0.282419
                                0.10003285        0.15287
                                0.04583255        0.056392
                                0.02097146        0.002436
[INPUT] 2    0    [10   /1   ]  23.41055103       0.00358
                                9.57667856        -0.025515
                                5.80916551        -0.059701
                                2.24207749        -0.368686
                                1.03019541        -0.411377
                                0.49142269        0.111569
                                0.21727354        0.351629
                                0.10003285        0.348869
                                0.04583255        0.164529
                                0.02097146        0.017016
[INPUT] 2    0    [10   /1   ]  23.41055103       0.002987
                                9.57667856        -0.02282
                                5.80916551        -0.028398
                                2.24207749        -0.633662
                                1.03019541        0.000206
                                0.49142269        0.7719
                                0.21727354        0.176352
                                0.10003285        -0.462194
                                0.04583255        -0.352638
                                0.02097146        -0.047043
[INPUT] 2    0    [1    /1   ]  0.02097146           1
[INPUT] 2    0    [1    /1   ]  0.00959584           1
[INPUT] 3    0    [1    /1   ]  1.906048             1
[INPUT] 3    0    [1    /1   ]  0.547537             1
[INPUT] 3    0    [1    /1   ]  0.15728709           1
[INPUT] 4    0    [1    /1   ]  1.769691             1
[INPUT] 4    0    [1    /1   ]  0.50836667           1
[INPUT] O
[INPUT] 0    0    [10   /1   ]  57.663349         -0.002794
                                35.726816         0.023976
                                22.453757         -0.115974
                                14.732301         0.288033
                                9.739917          -0.274786
                                5.042008          -0.083789
                                2.157818          0.063778
                                1.002916          0.410182
                                0.421839          0.504044
                                0.173041          0.172152
[INPUT] 0    0    [1    /1   ]  1.849096             1
[INPUT] 0    0    [1    /1   ]  0.255434             1
[INPUT] 0    0    [1    /1   ]  0.141483             1
[INPUT] 1    0    [10   /1   ]  52.47406          -0.000522
                                32.138432         0.004857
                                19.458579         -0.027749
                                11.839344         0.074258
                                7.91003           0.014369
                                3.670858          0.153479
                                1.53966           0.283685
                                0.647119          0.358201
                                0.267853          0.29559
                                0.107198          0.104889
[INPUT] 1    0    [1    /1   ]  0.622175             1
[INPUT] 1    0    [1    /1   ]  0.193391             1
[INPUT] 1    0    [1    /1   ]  0.052779             1
[INPUT] 2    0    [1    /1   ]  2.324251             1
[INPUT] 2    0    [1    /1   ]  0.656935             1
[INPUT] 2    0    [1    /1   ]  0.2072               1
[INPUT] 3    0    [1    /1   ]  1.423472             1
[INPUT] 3    0    [1    /1   ]  0.48761              1
nuclear repulsion = 20.9386666191367
number of shells = 35
number of NR pGTOs = 480
number of NR cGTOs = 133
basis = {'Sc': [[0, [36.40041505, 0.005374], [19.41172108, -0.032266], [7.76559262, 0.361279], [4.72233684, -0.858519], [3.30202494, 0.196889], [1.73290764, 0.133972], [0.86033787, 0.640189], [0.4883664, 0.334618], [0.23725388, 0.123744], [0.10565308, -0.017421], [0.04670613, 0.010856], [0.020926, -0.001573]], [0, [36.40041505, -0.001039], [19.41172108, 0.006911], [7.76559262, -0.089603], [4.72233684, 0.22876], [3.30202494, -0.05839], [1.73290764, -0.038559], [0.86033787, -0.215849], [0.4883664, -0.20849], [0.23725388, -0.146275], [0.10565308, 0.350802], [0.04670613, 0.655178], [0.020926, 0.218601]], [0, [36.40041505, -0.00175], [19.41172108, 0.017204], [7.76559262, -0.309191], [4.72233684, 0.849279], [3.30202494, -0.048406], [1.73290764, -0.879531], [0.86033787, -0.861793], [0.4883664, 0.451521], [0.23725388, 0.818867], [0.10565308, 0.713573], [0.04670613, -0.620518], [0.020926, -0.444725]], [0, [36.40041505, 0.001273], [19.41172108, -0.019493], [7.76559262, 0.457296], [4.72233684, -1.487759], [3.30202494, 0.341481], [1.73290764, 2.055667], [0.86033787, 0.444271], [0.4883664, -2.657874], [0.23725388, 0.084156], [0.10565308, 1.920058], [0.04670613, -0.403119], [0.020926, -0.733418]], [0, [0.020926, 1.0]], [0, [0.00937558, 1.0]], [1, [41.12697558, 0.001162], [22.43738592, -0.006345], [11.2588519, 0.030743], [6.08582478, -0.083979], [3.77549759, -0.031739], [2.17906519, 0.232763], [1.07491872, 0.420436], [0.55241218, 0.351975], [0.2815094, 0.143464], [0.12312886, 0.016009], [0.0538551, 0.000238], [0.02355558, 0.000253]], [1, [41.12697558, -0.000251], [22.43738592, 0.001425], [11.2588519, -0.007434], [6.08582478, 0.022493], [3.77549759, 0.004514], [2.17906519, -0.065531], [1.07491872, -0.124901], [0.55241218, -0.130795], [0.2815094, 0.004026], [0.12312886, 0.357311], [0.0538551, 0.542386], [0.02355558, 0.222946]], [1, [41.12697558, 0.00062], [22.43738592, -0.004736], [11.2588519, 0.034157], [6.08582478, -0.121614], [3.77549759, -0.12056], [2.17906519, 0.882214], [1.07491872, 0.368083], [0.55241218, -0.900566], [0.2815094, -0.579301], [0.12312886, 0.599454], [0.0538551, 0.442546], [0.02355558, 0.0067]], [1, [41.12697558, 0.002262], [22.43738592, -0.014038], [11.2588519, 0.095759], [6.08582478, -0.503141], [3.77549759, 0.622223], [2.17906519, 1.362984], [1.07491872, -1.598889], [0.55241218, -0.818793], [0.2815094, 1.67365], [0.12312886, -0.091296], [0.0538551, -0.629433], [0.02355558, -0.001578]], [1, [0.02355558, 1.0]], [1, [0.01030293, 1.0]], [2, [23.41055103, -0.002062], [9.57667856, 0.014373], [5.80916551, 0.096933], [2.24207749, 0.204502], [1.03019541, 0.261896], [0.49142269, 0.31382], [0.21727354, 0.282419], [0.10003285, 0.15287], [0.04583255, 0.056392], [0.02097146, 0.002436]], [2, [23.41055103, 0.00358], [9.57667856, -0.025515], [5.80916551, -0.059701], [2.24207749, -0.368686], [1.03019541, -0.411377], [0.49142269, 0.111569], [0.21727354, 0.351629], [0.10003285, 0.348869], [0.04583255, 0.164529], [0.02097146, 0.017016]], [2, [23.41055103, 0.002987], [9.57667856, -0.02282], [5.80916551, -0.028398], [2.24207749, -0.633662], [1.03019541, 0.000206], [0.49142269, 0.7719], [0.21727354, 0.176352], [0.10003285, -0.462194], [0.04583255, -0.352638], [0.02097146, -0.047043]], [2, [0.02097146, 1.0]], [2, [0.00959584, 1.0]], [3, [1.906048, 1.0]], [3, [0.547537, 1.0]], [3, [0.15728709, 1.0]], [4, [1.769691, 1.0]], [4, [0.50836667, 1.0]]], 'O': [[0, [57.663349, -0.002794], [35.726816, 0.023976], [22.453757, -0.115974], [14.732301, 0.288033], [9.739917, -0.274786], [5.042008, -0.083789], [2.157818, 0.063778], [1.002916, 0.410182], [0.421839, 0.504044], [0.173041, 0.172152]], [0, [1.849096, 1.0]], [0, [0.255434, 1.0]], [0, [0.141483, 1.0]], [1, [52.47406, -0.000522], [32.138432, 0.004857], [19.458579, -0.027749], [11.839344, 0.074258], [7.91003, 0.014369], [3.670858, 0.153479], [1.53966, 0.283685], [0.647119, 0.358201], [0.267853, 0.29559], [0.107198, 0.104889]], [1, [0.622175, 1.0]], [1, [0.193391, 1.0]], [1, [0.052779, 1.0]], [2, [2.324251, 1.0]], [2, [0.656935, 1.0]], [2, [0.2072, 1.0]], [3, [1.423472, 1.0]], [3, [0.48761, 1.0]]]}
ecp = {'Sc': [10, [[-1, [[], [[8.68432435, 11.0]], [[12.96081047, 1293.12711495], [3.42726018, -59.34807006], [13.92649869, -6626.33658022], [14.1135521, 5365.4170824]], [[3.87834215, 95.52756785]]]], [0, [[], [], [[14.11432286, -1492.86349923], [4.42835597, 1499.37242], [7.46045566, 1088.20049735], [10.23533878, -1981.91696501], [4.52489587, -1710.45115474], [13.07885945, 2625.43810581]], []]], [1, [[], [], [[9.83997641, -2070.12504374], [7.25072068, 5801.02991534], [11.81974746, 1554.97375552], [14.07433272, -853.69420879], [7.08460322, -4878.01776292], [14.07166426, 462.12967346]], []]], [2, [[], [], [[11.29849449, -570.2795343], [5.72119848, -549.4382461], [6.53234086, 1672.92599442], [8.11431019, -2704.80905453], [9.9572828, 4666.19773963], [10.24029445, -2524.96335631]], []]]]], 'O': [2, [[-1, [[], [[10.27717748, 6.0]], [[15.99566749, 1232.50197768], [10.46901775, -696.47008301], [14.6384801, -2654.22657081], [12.57591181, 2101.67732548]], [[7.77739102, 61.66306486]]]], [0, [[], [], [[12.39426073, -656683.37638839], [12.38126171, 657858.57667068], [8.57671033, 511.50098405], [9.89256508, -2579.54665641], [28.05641604, -57.68129584], [17.24753607, 970.30940152]], []]], [1, [[], [], [[14.78918914, -363027.24258186], [14.82014018, 361852.52314043], [22.89622221, -1300.20069256], [8.51331893, -181.96869573], [11.48609758, 2194.87589959], [27.22017524, 451.19906206]], []]]]]}
CPU time:         3.49


******** <class 'pyscf.scf.rohf.ROHF'> flags ********
method = ROHF
initial guess = minao
damping factor = 0
level shift factor = 1000.0
DIIS = <class 'pyscf.scf.diis.CDIIS'>
DIIS start cycle = 1
DIIS space = 8
SCF tol = 1e-09
SCF gradient tol = None
max. SCF cycles = 50
direct_scf = True
direct_scf_tol = 1e-13
chkfile to save SCF result = /rc_scratch/bamu3429/tmpMR4c1k
max_memory 4000 MB (current use 164 MB)
num. doubly occ = 8  num. singly occ = 1
Set gradient conv threshold to 3.16228e-05
init E= -61.833745884563
  HOMO = 499.880860364771  LUMO = 1000.01135850289
cycle= 1 E= -61.8337458845631  delta_E= -8.53e-14  |g|= 1.3e-05  |ddm|= 9.06e-08
  HOMO = -0.119139635882364  LUMO = 0.0113585027956785
Extra cycle  E= -61.83374588461  delta_E= -4.69e-11  |g|= 3.29e-06  |ddm|= 2.56e-05
converged SCF energy = -61.83374588461
**** MO energy ****
                Roothaan           | alpha              | beta
MO #1   energy= -2.65049004524809  | -2.65512825029819  | -2.64585183846002  occ= 2
MO #2   energy= -1.66228840223202  | -1.66735545273722  | -1.6572213493975   occ= 2
MO #3   energy= -1.6271316834684   | -1.62945198941676  | -1.62481137752003  occ= 2
MO #4   energy= -1.6271316834684   | -1.62945198941677  | -1.62481137752004  occ= 2
MO #5   energy= -1.11745285211979  | -1.11847928740698  | -1.11642641678323  occ= 2
MO #6   energy= -0.429644738588888 | -0.43116155085537  | -0.428127919000904 occ= 2
MO #7   energy= -0.420697727532744 | -0.421416155800483 | -0.419979299265005 occ= 2
MO #8   energy= -0.420697727532742 | -0.421416155800484 | -0.419979299265006 occ= 2
MO #9   energy= -0.119139635882364 | -0.247783439657623 | 0.00950376507310574 occ= 1
MO #10  energy= 0.0113585027956785 | 0.00477195902012584 | 0.0179450465712334 occ= 0
MO #11  energy= 0.0113585027956806 | 0.0047719590201262 | 0.0179450465712338 occ= 0
MO #12  energy= 0.0156794246557708 | 0.014167644000862  | 0.0171911645051734 occ= 0
MO #13  energy= 0.022554872358688  | 0.0214632210769104 | 0.023646573470705  occ= 0
MO #14  energy= 0.0281756234532489 | 0.028052361344634  | 0.0282988855618651 occ= 0
MO #15  energy= 0.0281756234532509 | 0.0280523613446343 | 0.0282988855618655 occ= 0
MO #16  energy= 0.0317599837133638 | 0.0313686441627208 | 0.0321513232640052 occ= 0
MO #17  energy= 0.0317599837133641 | 0.0313686441627211 | 0.0321513232640055 occ= 0
MO #18  energy= 0.0367910257174367 | 0.0366072027980356 | 0.0369748511234717 occ= 0
MO #19  energy= 0.0440827802365162 | 0.0326293541703117 | 0.0555362063027217 occ= 0
MO #20  energy= 0.0440827802365171 | 0.0326293541703121 | 0.0555362063027228 occ= 0
MO #21  energy= 0.0603280267390079 | 0.0504570315194896 | 0.0701990747120684 occ= 0
MO #22  energy= 0.0746295008682269 | 0.0702365650367875 | 0.0790224366996683 occ= 0
MO #23  energy= 0.0746295008682294 | 0.0702365650367887 | 0.0790224366996706 occ= 0
MO #24  energy= 0.0929992118036821 | 0.0919833031225714 | 0.0940151204847917 occ= 0
MO #25  energy= 0.0929992118036829 | 0.0919833031225721 | 0.0940151204847916 occ= 0
MO #26  energy= 0.10451168474522   | 0.100153629561774  | 0.108869855819544  occ= 0
MO #27  energy= 0.1298263255901    | 0.125966846976719  | 0.133685840429073  occ= 0
MO #28  energy= 0.137807517704572  | 0.132865573596505  | 0.14274946181264   occ= 0
MO #29  energy= 0.13780751770458   | 0.132865573596513  | 0.142749461812649  occ= 0
MO #30  energy= 0.159532568971205  | 0.149135635909888  | 0.169929502032522  occ= 0
MO #31  energy= 0.159532568971207  | 0.149135635909889  | 0.169929502032523  occ= 0
MO #32  energy= 0.160299362622298  | 0.15131960607436   | 0.169279217446216  occ= 0
MO #33  energy= 0.241900236398748  | 0.235167538567792  | 0.248632934229703  occ= 0
MO #34  energy= 0.241900236398751  | 0.235167538567795  | 0.248632934229706  occ= 0
MO #35  energy= 0.264287589070896  | 0.263008492856014  | 0.265566685285777  occ= 0
MO #36  energy= 0.264287589070901  | 0.263008492856017  | 0.265566685285784  occ= 0
MO #37  energy= 0.303712113984599  | 0.301681790143655  | 0.30574242936605   occ= 0
MO #38  energy= 0.416031269539757  | 0.413130068051342  | 0.418932456671164  occ= 0
MO #39  energy= 0.497396166932714  | 0.485330532583135  | 0.509461878630898  occ= 0
MO #40  energy= 0.519997982143164  | 0.512372581877616  | 0.527623382408712  occ= 0
MO #41  energy= 0.519997982143165  | 0.512372581877617  | 0.527623382408715  occ= 0
MO #42  energy= 0.54295938286604   | 0.532485208540808  | 0.55343355719127   occ= 0
MO #43  energy= 0.542959382866041  | 0.532485208540809  | 0.553433557191272  occ= 0
MO #44  energy= 0.549572626728178  | 0.542120549144984  | 0.55702470431137   occ= 0
MO #45  energy= 0.549572626728179  | 0.542120549144985  | 0.55702470431137   occ= 0
MO #46  energy= 0.557365984617099  | 0.552392611112147  | 0.562339358122056  occ= 0
MO #47  energy= 0.5573659846171    | 0.552392611112146  | 0.562339358122056  occ= 0
MO #48  energy= 0.598710885032051  | 0.589105421043308  | 0.608316367914192  occ= 0
MO #49  energy= 0.698835934060134  | 0.69426996061516   | 0.70340190614053   occ= 0
MO #50  energy= 0.796370549787839  | 0.791846948543788  | 0.800894151031885  occ= 0
MO #51  energy= 0.796370549787841  | 0.79184694854379   | 0.800894151031891  occ= 0
MO #52  energy= 0.864168943944954  | 0.862249686574773  | 0.866088201315133  occ= 0
MO #53  energy= 0.86416894394497   | 0.86224968657479   | 0.866088201315151  occ= 0
MO #54  energy= 0.870352901639317  | 0.869648125687169  | 0.871057677591463  occ= 0
MO #55  energy= 0.870352901639337  | 0.869648125687189  | 0.871057677591481  occ= 0
MO #56  energy= 0.905430911817044  | 0.904027473988965  | 0.906834352144335  occ= 0
MO #57  energy= 1.03607743139201   | 1.03361171342915   | 1.03854314935486   occ= 0
MO #58  energy= 1.03607743139204   | 1.03361171342918   | 1.03854314935489   occ= 0
MO #59  energy= 1.26389894605485   | 1.26207900594413   | 1.26571888848329   occ= 0
MO #60  energy= 1.45309860026256   | 1.45001345631842   | 1.45618374541146   occ= 0
MO #61  energy= 1.50939144725322   | 1.50507346462828   | 1.51370942987816   occ= 0
MO #62  energy= 1.50939144725322   | 1.50507346462829   | 1.51370942987816   occ= 0
MO #63  energy= 1.78771059523259   | 1.78638968146794   | 1.78903150899725   occ= 0
MO #64  energy= 1.7877105952326    | 1.78638968146794   | 1.78903150899725   occ= 0
MO #65  energy= 1.84096536495468   | 1.83918342215206   | 1.84274730775731   occ= 0
MO #66  energy= 1.84096536495468   | 1.83918342215206   | 1.8427473077573    occ= 0
MO #67  energy= 1.86475540167184   | 1.86211859712181   | 1.86739220622187   occ= 0
MO #68  energy= 1.86475540167185   | 1.86211859712182   | 1.86739220622187   occ= 0
MO #69  energy= 1.91509389632289   | 1.91145803328948   | 1.91872975930492   occ= 0
MO #70  energy= 2.01475720094335   | 2.01357741360407   | 2.01593698828263   occ= 0
MO #71  energy= 2.01475720094336   | 2.01357741360407   | 2.01593698828263   occ= 0
MO #72  energy= 2.02708198956988   | 2.02396123035141   | 2.03020274889809   occ= 0
MO #73  energy= 2.0757966731594    | 2.07330504900484   | 2.07828829731396   occ= 0
MO #74  energy= 2.07579667315944   | 2.07330504900488   | 2.078288297314     occ= 0
MO #75  energy= 2.10661187060997   | 2.10340685369067   | 2.10981688752929   occ= 0
MO #76  energy= 2.10661187060998   | 2.10340685369067   | 2.10981688752929   occ= 0
MO #77  energy= 2.23495969629375   | 2.23254090140824   | 2.23737849117927   occ= 0
MO #78  energy= 2.23495969629379   | 2.23254090140828   | 2.23737849117931   occ= 0
MO #79  energy= 2.26080782081971   | 2.25941638266101   | 2.2621992589784    occ= 0
MO #80  energy= 2.26080782081971   | 2.25941638266102   | 2.26219925897841   occ= 0
MO #81  energy= 2.26470035598862   | 2.26090014873052   | 2.26850056324672   occ= 0
MO #82  energy= 2.26470035598863   | 2.26090014873053   | 2.26850056324673   occ= 0
MO #83  energy= 2.37629363744995   | 2.37501454524087   | 2.37757272968474   occ= 0
MO #84  energy= 2.37752611086031   | 2.37698493915208   | 2.37806728256854   occ= 0
MO #85  energy= 2.37752611086031   | 2.37698493915209   | 2.37806728256855   occ= 0
MO #86  energy= 2.44299124386811   | 2.44071095140795   | 2.44527153632827   occ= 0
MO #87  energy= 2.44299124386811   | 2.44071095140795   | 2.44527153632827   occ= 0
MO #88  energy= 2.50431181606338   | 2.50332243140982   | 2.505301200683     occ= 0
MO #89  energy= 2.80020438677867   | 2.79890905826312   | 2.80149971529421   occ= 0
MO #90  energy= 2.80020438677867   | 2.79890905826312   | 2.80149971529422   occ= 0
MO #91  energy= 2.92140957756043   | 2.92006917146228   | 2.9227499836586    occ= 0
MO #92  energy= 2.92140957756045   | 2.92006917146229   | 2.92274998365861   occ= 0
MO #93  energy= 2.9323350107453    | 2.92805300230567   | 2.93661701783071   occ= 0
MO #94  energy= 3.03634638413268   | 3.03438021163823   | 3.03831255627041   occ= 0
MO #95  energy= 3.27564883220817   | 3.27466539453566   | 3.27663226981035   occ= 0
MO #96  energy= 3.41002466761833   | 3.40944226865501   | 3.41060706658165   occ= 0
MO #97  energy= 3.41002466761834   | 3.40944226865502   | 3.41060706658166   occ= 0
MO #98  energy= 4.09810297605664   | 4.09769832304512   | 4.09850762906816   occ= 0
MO #99  energy= 4.0981029760567    | 4.09769832304519   | 4.09850762906822   occ= 0
MO #100 energy= 5.19548256944834   | 5.19495942783778   | 5.19600571111988   occ= 0
MO #101 energy= 5.38696924018776   | 5.38485118137994   | 5.38908729899558   occ= 0
MO #102 energy= 5.38696924018777   | 5.38485118137994   | 5.38908729899557   occ= 0
MO #103 energy= 5.47586042743768   | 5.47380853965259   | 5.47791231524951   occ= 0
MO #104 energy= 5.90252293268496   | 5.90175441242376   | 5.90329145294614   occ= 0
MO #105 energy= 5.90252293268496   | 5.90175441242377   | 5.90329145294615   occ= 0
MO #106 energy= 5.96610135482489   | 5.96476441529865   | 5.96743829435114   occ= 0
MO #107 energy= 5.96610135482489   | 5.96476441529865   | 5.96743829435113   occ= 0
MO #108 energy= 6.23242467339039   | 6.23081028106627   | 6.23403906571452   occ= 0
MO #109 energy= 6.23242467339039   | 6.23081028106625   | 6.23403906571451   occ= 0
MO #110 energy= 6.26866520744748   | 6.26728432611555   | 6.27004608884501   occ= 0
MO #111 energy= 6.5300747516919    | 6.53001566964157   | 6.53013383374221   occ= 0
MO #112 energy= 6.5300747516919    | 6.53001566964158   | 6.53013383374222   occ= 0
MO #113 energy= 6.61696669116792   | 6.61685616769412   | 6.6170772146417    occ= 0
MO #114 energy= 6.61696669116792   | 6.61685616769413   | 6.61707721464171   occ= 0
MO #115 energy= 6.78557115834579   | 6.78530329803318   | 6.78583901865839   occ= 0
MO #116 energy= 6.78557115834579   | 6.78530329803317   | 6.78583901865838   occ= 0
MO #117 energy= 7.1436115089443    | 7.14350235030965   | 7.14372066757896   occ= 0
MO #118 energy= 7.14361150894431   | 7.14350235030966   | 7.14372066757897   occ= 0
MO #119 energy= 7.22766171753641   | 7.22590911561363   | 7.22941431948797   occ= 0
MO #120 energy= 7.44705303188347   | 7.44662999268764   | 7.44747607107773   occ= 0
MO #121 energy= 7.49680491914004   | 7.49656022960721   | 7.49704960867282   occ= 0
MO #122 energy= 7.49680491914004   | 7.49656022960722   | 7.49704960867284   occ= 0
MO #123 energy= 7.90330384007129   | 7.90292334148578   | 7.9036843386568    occ= 0
MO #124 energy= 7.90330384007129   | 7.90292334148578   | 7.9036843386568    occ= 0
MO #125 energy= 7.93432435100883   | 7.9337986491107    | 7.93485005290698   occ= 0
MO #126 energy= 7.93432435100883   | 7.93379864911069   | 7.93485005290697   occ= 0
MO #127 energy= 8.03665869217848   | 8.03578885962814   | 8.03752852472881   occ= 0
MO #128 energy= 8.03665869217848   | 8.03578885962815   | 8.03752852472882   occ= 0
MO #129 energy= 8.07819650538316   | 8.07705208285074   | 8.07934092791559   occ= 0
MO #130 energy= 8.07819650538317   | 8.07705208285074   | 8.07934092791558   occ= 0
MO #131 energy= 8.28083383693327   | 8.27979953840919   | 8.28186813552909   occ= 0
MO #132 energy= 8.69043825443067   | 8.68840779894042   | 8.69246871003854   occ= 0
MO #133 energy= 13.5581792104649   | 13.5580275824069   | 13.5583308385261   occ= 0
 ** Mulliken pop on meta-lowdin orthogonal AOs  **
 ** Mulliken pop  **
pop of  0Sc 3s        1.99925
pop of  0Sc 4s        0.88858
pop of  0Sc 5s        0.00438
pop of  0Sc 6s        0.00164
pop of  0Sc 7s        0.00140
pop of  0Sc 8s        0.00084
pop of  0Sc 3px       1.99903
pop of  0Sc 3py       1.99903
pop of  0Sc 3pz       1.99511
pop of  0Sc 4px       0.00935
pop of  0Sc 4py       0.00935
pop of  0Sc 4pz       0.07591
pop of  0Sc 5px       0.00020
pop of  0Sc 5py       0.00020
pop of  0Sc 5pz       0.00789
pop of  0Sc 6px       0.00005
pop of  0Sc 6py       0.00005
pop of  0Sc 6pz       0.00179
pop of  0Sc 7px       0.00058
pop of  0Sc 7py       0.00058
pop of  0Sc 7pz       0.02178
pop of  0Sc 8px       0.00007
pop of  0Sc 8py       0.00007
pop of  0Sc 8pz       0.00267
pop of  0Sc 3dxy      0.00000
pop of  0Sc 3dyz      0.30702
pop of  0Sc 3dz^2     0.47570
pop of  0Sc 3dxz      0.30702
pop of  0Sc 3dx2-y2    0.00000
pop of  0Sc 4dxy      0.00000
pop of  0Sc 4dyz      0.00015
pop of  0Sc 4dz^2     0.01116
pop of  0Sc 4dxz      0.00015
pop of  0Sc 4dx2-y2    0.00000
pop of  0Sc 5dxy      0.00000
pop of  0Sc 5dyz      0.00022
pop of  0Sc 5dz^2     0.00253
pop of  0Sc 5dxz      0.00022
pop of  0Sc 5dx2-y2    0.00000
pop of  0Sc 6dxy      0.00000
pop of  0Sc 6dyz      0.00004
pop of  0Sc 6dz^2     0.00118
pop of  0Sc 6dxz      0.00004
pop of  0Sc 6dx2-y2    0.00000
pop of  0Sc 7dxy      0.00000
pop of  0Sc 7dyz      0.00000
pop of  0Sc 7dz^2     0.00004
pop of  0Sc 7dxz      0.00000
pop of  0Sc 7dx2-y2    0.00000
pop of  0Sc 4fy^3     0.00000
pop of  0Sc 4fxyz     0.00000
pop of  0Sc 4fyz^2    0.00018
pop of  0Sc 4fz^3     0.00032
pop of  0Sc 4fxz^2    0.00018
pop of  0Sc 4fzx^2    0.00000
pop of  0Sc 4fx^3     0.00000
pop of  0Sc 5fy^3     0.00000
pop of  0Sc 5fxyz     0.00000
pop of  0Sc 5fyz^2    0.00149
pop of  0Sc 5fz^3     0.00228
pop of  0Sc 5fxz^2    0.00149
pop of  0Sc 5fzx^2    0.00000
pop of  0Sc 5fx^3     0.00000
pop of  0Sc 6fy^3     0.00000
pop of  0Sc 6fxyz     0.00000
pop of  0Sc 6fyz^2    0.00091
pop of  0Sc 6fz^3     0.00522
pop of  0Sc 6fxz^2    0.00091
pop of  0Sc 6fzx^2    0.00000
pop of  0Sc 6fx^3     0.00000
pop of  0Sc 5g-4      0.00000
pop of  0Sc 5g-3      0.00000
pop of  0Sc 5g-2      0.00000
pop of  0Sc 5g-1      0.00001
pop of  0Sc 5g 0      0.00001
pop of  0Sc 5g 1      0.00001
pop of  0Sc 5g 2      0.00000
pop of  0Sc 5g 3      0.00000
pop of  0Sc 5g 4      0.00000
pop of  0Sc 6g-4      0.00000
pop of  0Sc 6g-3      0.00000
pop of  0Sc 6g-2      0.00000
pop of  0Sc 6g-1      0.00006
pop of  0Sc 6g 0      0.00101
pop of  0Sc 6g 1      0.00006
pop of  0Sc 6g 2      0.00000
pop of  0Sc 6g 3      0.00000
pop of  0Sc 6g 4      0.00000
pop of  1O 2s        1.84628
pop of  1O 3s        0.00208
pop of  1O 4s        0.00417
pop of  1O 5s        0.01585
pop of  1O 2px       1.66709
pop of  1O 2py       1.66709
pop of  1O 2pz       1.61667
pop of  1O 3px       0.00001
pop of  1O 3py       0.00001
pop of  1O 3pz       0.00050
pop of  1O 4px       0.00473
pop of  1O 4py       0.00473
pop of  1O 4pz       0.00158
pop of  1O 5px       0.00288
pop of  1O 5py       0.00288
pop of  1O 5pz       0.00536
pop of  1O 3dxy      0.00000
pop of  1O 3dyz      0.00030
pop of  1O 3dz^2     0.00039
pop of  1O 3dxz      0.00030
pop of  1O 3dx2-y2    0.00000
pop of  1O 4dxy      0.00000
pop of  1O 4dyz      0.00230
pop of  1O 4dz^2     0.00252
pop of  1O 4dxz      0.00230
pop of  1O 4dx2-y2    0.00000
pop of  1O 5dxy      0.00000
pop of  1O 5dyz      0.00319
pop of  1O 5dz^2     0.00339
pop of  1O 5dxz      0.00319
pop of  1O 5dx2-y2    0.00000
pop of  1O 4fy^3     0.00000
pop of  1O 4fxyz     0.00000
pop of  1O 4fyz^2    0.00005
pop of  1O 4fz^3     0.00010
pop of  1O 4fxz^2    0.00005
pop of  1O 4fzx^2    0.00000
pop of  1O 4fx^3     0.00000
pop of  1O 5fy^3     0.00000
pop of  1O 5fxyz     0.00000
pop of  1O 5fyz^2    0.00009
pop of  1O 5fz^3     0.00040
pop of  1O 5fxz^2    0.00009
pop of  1O 5fzx^2    0.00000
pop of  1O 5fx^3     0.00000
 ** Mulliken atomic charges  **
charge of  0Sc =      0.86060
charge of  1O =     -0.86060

******** <class 'pyscf.mcscf.mc1step.CASSCF'> flags ********
CAS (4e+3e, 9o), ncore = 5, nvir = 119
max_cycle_macro = 50
max_cycle_micro = 4
conv_tol = 1e-07
conv_tol_grad = None
orbital rotation max_stepsize = 0.02
augmented hessian ah_max_cycle = 30
augmented hessian ah_conv_tol = 1e-12
augmented hessian ah_linear dependence = 1e-14
augmented hessian ah_level shift = 0
augmented hessian ah_start_tol = 2.5
augmented hessian ah_start_cycle = 3
augmented hessian ah_grad_trust_region = 3
kf_trust_region = 3
kf_interval = 4
ci_response_space = 4
ci_grad_trust_region = 3
with_dep4 0
natorb = False
canonicalization = True
sorting_mo_energy = False
chkfile = ./scratch/171911/tmprlfZ9Y
max_memory 4000 MB (current use 592 MB)
internal_rotation = False

******** SHCI flags ********
executable             = /home/bamu3429/softwares/dice/Dice
mpiprefix              = srun -n20
scratchDirectory       = ./scratch/171911
integralFile           = ./FCIDUMP
configFile             = ./input.dat
outputFile             = ./output.dat
maxIter                = 6
sweep_iter             = []
sweep_epsilon          = []
nPTiter                = 0
Stochastic             = True
fullrestart            = False
restart                = False
num_thrds              = 12
memory                 = None

CASCI E = -61.8337500071592  S^2 = 0.7500000
Set conv_tol_grad to 0.000316228
macro iter 1 (7 JK  2 micro), CASSCF E = -61.8337674482738  dE = -1.7441115e-05  S^2 = 0.7500000
               |grad[o]|=5.04e-05  |grad[c]|= None  |ddm|=0.00637
macro iter 2 (7 JK  2 micro), CASSCF E = -61.8339532137104  dE = -0.00018576544  S^2 = 0.7500000
               |grad[o]|=0.000169  |grad[c]|= None  |ddm|=0.000676
macro iter 3 (7 JK  2 micro), CASSCF E = -61.8349465721501  dE = -0.00099335844  S^2 = 0.7500000
               |grad[o]|=0.00228  |grad[c]|= None  |ddm|=0.00905
macro iter 4 (21 JK  4 micro), CASSCF E = -61.8513832198413  dE = -0.016436648  S^2 = 0.7500000
               |grad[o]|=0.00924  |grad[c]|= None  |ddm|=0.0347
macro iter 5 (21 JK  4 micro), CASSCF E = -61.8673488631341  dE = -0.015965643  S^2 = 0.7500000
               |grad[o]|=0.0359  |grad[c]|= None  |ddm|=0.0463
macro iter 6 (21 JK  4 micro), CASSCF E = -61.9311219679577  dE = -0.063773105  S^2 = 0.7500000
               |grad[o]|=0.0647  |grad[c]|= None  |ddm|=0.0381
macro iter 7 (21 JK  4 micro), CASSCF E = -61.9655479617032  dE = -0.034425994  S^2 = 0.7500000
               |grad[o]|=0.0697  |grad[c]|= None  |ddm|=0.0329
macro iter 8 (21 JK  4 micro), CASSCF E = -61.9677479016259  dE = -0.0021999399  S^2 = 0.7500000
               |grad[o]|=0.011  |grad[c]|= None  |ddm|=0.00568
macro iter 9 (21 JK  4 micro), CASSCF E = -61.9693830176613  dE = -0.001635116  S^2 = 0.7500000
               |grad[o]|=0.00589  |grad[c]|= None  |ddm|=0.00521
macro iter 10 (17 JK  4 micro), CASSCF E = -61.9695253727858  dE = -0.00014235512  S^2 = 0.7500000
               |grad[o]|=0.00395  |grad[c]|= None  |ddm|=0.0049
macro iter 11 (17 JK  4 micro), CASSCF E = -61.9695410196457  dE = -1.564686e-05  S^2 = 0.7500000
               |grad[o]|=0.00153  |grad[c]|= None  |ddm|=0.00183
macro iter 12 (15 JK  3 micro), CASSCF E = -61.969541830163  dE = -8.1051728e-07  S^2 = 0.7500000
               |grad[o]|=0.000334  |grad[c]|= None  |ddm|=0.000393
macro iter 13 (15 JK  3 micro), CASSCF E = -61.9695517459878  dE = -9.9158248e-06  S^2 = 0.7500000
               |grad[o]|=0.000261  |grad[c]|= None  |ddm|=0.000322
macro iter 14 (3 JK  1 micro), CASSCF E = -61.9695517549896  dE = -9.0018162e-09  S^2 = 0.7500000
               |grad[o]|=5.81e-05  |grad[c]|= None  |ddm|=2.11e-05
1-step CASSCF converged in 14 macro (214 JK 45 micro) steps
CASSCF canonicalization
CASSCF energy = -61.9695517549896


--------------------------------------------------
                 ICMPSPT CALCULATION              
--------------------------------------------------

Perturbation type: MRLCC
With fully internally contracted scheme
With third order correction

Preparing necessary RDMs
......production of RDMs took      34.52 sec
Reading binary 4RDM from DICE
......reading the RDM took         27.07 sec

(GOOD) Trace 4RDM:    840.0 =    7*    6*    5*    4
(GOOD) Trace 3RDM:    210.0 =    7*    6*    5
(GOOD) Trace 2RDM:     42.0 =    7*    6
(GOOD) Trace 1RDM:      7.0 =    7

Producing the integrals
......production of INT took     138.28 sec

Energy_core =  -70.25532770
Energy      =  -61.96955175

WARNING: Have to use natural orbitals from CAASCF
         offdiagonal elements:    0.52441051

Basic ingredients written to int/
......savings of INGREDIENTS took      63.24 sec

Second-order:
perturber CCVV --        -0.203091337
perturber CCAV --        -0.063340805
perturber ACVV --        -0.095971278
perturber CCAA --        -0.017877702
perturber AAVV --        -0.084446135
perturber CAAV --        -0.085026554
perturber AAAV --        -0.021367927
perturber AAAC --        -0.003544920
Total:                   -0.574666658

Third-order:             -0.000226129

Total PT       --        -0.574892787

