 &FCI NORB=6 ,NELEC=5 ,MS2=5,
  ORBSYM=1,1,1,1,1,1,
  ISYM=1,
 &END
  7.450837342151e-01    1  1  1  1
  5.906694190336e-09    2  1  1  1
  1.617835762132e-02    2  1  2  1
  7.127270563781e-01    2  2  1  1
  5.198604225706e-09    2  2  2  1
  7.450838074999e-01    2  2  2  2
 -2.937414727337e-09    3  1  1  1
  7.289584520231e-04    3  1  2  1
  7.108687539623e-04    3  1  2  2
  2.834862390549e-02    3  1  3  1
 -1.457921458298e-03    3  2  1  1
 -3.554378147225e-04    3  2  2  1
  2.788641347224e-09    3  2  2  2
 -3.193863886201e-04    3  2  3  1
  2.564828503312e-02    3  2  3  2
  6.883864287032e-01    3  3  1  1
  6.387834912420e-04    3  3  2  1
  6.937872580650e-01    3  3  2  2
 -3.547396242392e-09    3  3  3  1
 -8.273528402884e-09    3  3  3  2
  7.450836209004e-01    3  3  3  3
  3.679502300168e-09    4  1  1  1
  1.159896400946e-03    4  1  2  1
 -1.545816643697e-03    4  1  2  2
  3.983179934292e-04    4  1  3  1
 -1.087486295610e-02    4  1  3  2
  1.522232871809e-03    4  1  3  3
  2.864967935225e-02    4  1  4  1
 -2.319765209154e-03    4  2  1  1
  7.729040667479e-04    4  2  2  1
  2.027410792245e-08    4  2  2  2
  1.327935153891e-02    4  2  3  1
  1.055596611265e-04    4  2  3  2
  4.577578415515e-03    4  2  3  3
  1.363975959121e-04    4  2  4  1
  3.072409084417e-02    4  2  4  2
 -7.966619816023e-04    4  3  1  1
 -2.404569903548e-03    4  3  2  1
 -2.111203318439e-04    4  3  2  2
 -7.611185657272e-04    4  3  3  1
 -2.288781820222e-03    4  3  3  2
 -4.893472590074e-09    4  3  3  3
 -1.033407484629e-03    4  3  4  1
 -1.942612258797e-04    4  3  4  2
  2.808405500511e-02    4  3  4  3
  6.877843104367e-01    4  4  1  1
 -2.728162192739e-04    4  4  2  1
  6.836353074634e-01    4  4  2  2
  2.066724890113e-03    4  4  3  1
  3.885244576654e-04    4  4  3  2
  6.889154538131e-01    4  4  3  3
 -4.355992593447e-09    4  4  4  1
 -6.187032812177e-08    4  4  4  2
  9.954402313279e-10    4  4  4  3
  7.450835343689e-01    4  4  4  4
  1.723124703497e-08    5  1  1  1
  2.670955109556e-03    5  1  2  1
 -7.218961805504e-04    5  1  2  2
 -2.648928038879e-04    5  1  3  1
  2.891767728529e-03    5  1  3  2
  2.456032783993e-04    5  1  3  3
  9.525055348621e-04    5  1  4  1
 -8.843631813680e-04    5  1  4  2
 -1.420045446432e-02    5  1  4  3
  4.762890056632e-04    5  1  4  4
  3.191217562107e-02    5  1  5  1
 -5.341791389405e-03    5  2  1  1
  3.609548933697e-04    5  2  2  1
  1.088253909139e-07    5  2  2  2
 -3.809024007403e-03    5  2  3  1
  5.292947389550e-04    5  2  3  2
  1.611417284410e-02    5  2  3  3
  5.773214054769e-04    5  2  4  1
  3.907463776246e-04    5  2  4  2
  2.100037306891e-04    5  2  4  3
 -1.077236998279e-02    5  2  4  4
  1.829791759031e-04    5  2  5  1
  3.253804872613e-02    5  2  5  2
  5.297908203605e-04    5  3  1  1
  9.172746926317e-04    5  3  2  1
 -1.058598914116e-03    5  3  2  2
 -1.228066355177e-04    5  3  3  1
 -8.057057521688e-03    5  3  3  2
 -7.635363860156e-09    5  3  3  3
  9.750755542137e-03    5  3  4  1
 -6.731775929486e-04    5  3  4  2
 -1.343213076560e-03    5  3  4  3
  5.288089944384e-04    5  3  4  4
  1.388839065044e-03    5  3  5  1
 -5.347049267787e-04    5  3  5  2
  2.300773450727e-02    5  3  5  3
 -1.904926170988e-03    5  4  1  1
  3.070332594021e-04    5  4  2  1
 -7.814081498737e-04    5  4  2  2
  4.449588314881e-03    5  4  3  1
  4.631690558768e-04    5  4  3  2
  2.686358545762e-03    5  4  3  3
 -2.381500131071e-04    5  4  4  1
  5.386106836299e-03    5  4  4  2
 -2.643990585040e-04    5  4  4  3
 -3.369217649029e-08    5  4  4  4
 -1.179183556857e-05    5  4  5  1
  1.128901942298e-03    5  4  5  2
 -5.038831900273e-04    5  4  5  3
  1.763080382341e-02    5  4  5  4
  6.812595627528e-01    5  5  1  1
 -3.659758563096e-04    5  5  2  1
  6.800076964789e-01    5  5  2  2
 -2.777607725177e-03    5  5  3  1
  1.069380214659e-03    5  5  3  2
  6.990679295260e-01    5  5  3  3
  2.357251284976e-05    5  5  4  1
 -2.257813335795e-03    5  5  4  2
  1.007770298995e-03    5  5  4  3
  7.098218333739e-01    5  5  4  4
 -1.837864393373e-08    5  5  5  1
 -1.013885076541e-07    5  5  5  2
  1.945776986802e-09    5  5  5  3
 -2.642382833514e-08    5  5  5  4
  7.450833674108e-01    5  5  5  5
 -2.717053977953e-04    6  1  1  1
 -4.828227088147e-04    6  1  2  1
 -7.135744782984e-05    6  1  2  2
  1.054971742133e-05    6  1  3  1
  7.167196538959e-05    6  1  3  2
  1.074006825654e-05    6  1  3  3
 -7.659214824250e-04    6  1  4  1
  1.546917036084e-04    6  1  4  2
  2.333405260055e-03    6  1  4  3
  7.985858785952e-05    6  1  4  4
 -2.652871702977e-03    6  1  5  1
  1.838600736212e-05    6  1  5  2
 -6.877974078143e-04    6  1  5  3
  3.699567963090e-05    6  1  5  4
  2.566338858293e-04    6  1  5  5
  6.479596666516e-03    6  1  6  1
 -4.772829876800e-04    6  2  1  1
 -7.215305145165e-05    6  2  2  1
 -1.401288620074e-03    6  2  2  2
  7.173025366434e-05    6  2  3  1
 -1.831508381443e-04    6  2  3  2
 -2.129470096725e-03    6  2  3  3
  1.546991664441e-04    6  2  4  1
 -5.145797549217e-04    6  2  4  2
  2.873899081541e-05    6  2  4  3
  2.588092927920e-03    6  2  4  4
  1.837587597563e-05    6  2  5  1
 -2.376589588454e-03    6  2  5  2
  2.645533118734e-04    6  2  5  3
 -2.613866015632e-04    6  2  5  4
  1.448556113878e-03    6  2  5  5
 -6.745703403970e-10    6  2  6  1
  6.479589017842e-03    6  2  6  2
  1.050746749604e-05    6  3  1  1
  7.169799019621e-05    6  3  2  1
 -1.832053268695e-04    6  3  2  2
  9.938639916085e-06    6  3  3  1
 -2.135381301978e-03    6  3  3  2
  4.018595470158e-04    6  3  3  3
  2.333797062847e-03    6  3  4  1
  2.875536183095e-05    6  3  4  2
  5.654364089851e-04    6  3  4  3
 -1.804793164239e-04    6  3  4  4
 -6.879513067505e-04    6  3  5  1
  2.645708438268e-04    6  3  5  2
  1.701488040712e-03    6  3  5  3
 -5.107979426940e-05    6  3  5  4
 -4.879350280091e-05    6  3  5  5
  6.800232091305e-09    6  3  6  1
  6.153434977202e-09    6  3  6  2
  6.479734185137e-03    6  3  6  3
 -7.631498784902e-04    6  4  1  1
  1.547214367880e-04    6  4  2  1
 -5.117766077039e-04    6  4  2  2
  2.334036605889e-03    6  4  3  1
  2.873621984730e-05    6  4  3  2
  5.685107187148e-04    6  4  3  3
  7.908745873807e-05    6  4  4  1
  2.583292164630e-03    6  4  4  2
 -1.804896846581e-04    6  4  4  3
  6.092561505801e-04    6  4  4  4
  3.699146563169e-05    6  4  5  1
 -2.614909904821e-04    6  4  5  2
 -5.107858849582e-05    6  4  5  3
  9.270071874245e-04    6  4  5  4
  1.129179367945e-04    6  4  5  5
  3.183328955453e-09    6  4  6  1
  1.234252957053e-08    6  4  6  2
  4.414569193803e-09    6  4  6  3
  6.479817280834e-03    6  4  6  4
 -2.645098271926e-03    6  5  1  1
  1.838802504346e-05    6  5  2  1
 -2.368736381486e-03    6  5  2  2
 -6.879905322825e-04    6  5  3  1
  2.646210542575e-04    6  5  3  2
  1.710313353016e-03    6  5  3  3
  3.700546880673e-05    6  5  4  1
 -2.614443192762e-04    6  5  4  2
 -5.108807206274e-05    6  5  4  3
  9.355953291924e-04    6  5  4  4
  2.558984082686e-04    6  5  5  1
  1.443514453796e-03    6  5  5  2
 -4.879715994853e-05    6  5  5  3
  1.098376957289e-04    6  5  5  4
  2.412314656674e-03    6  5  5  5
  1.238048410047e-09    6  5  6  1
 -6.410831395428e-09    6  5  6  2
  1.268229421027e-09    6  5  6  3
  1.004136199535e-08    6  5  6  4
  6.479838497657e-03    6  5  6  5
  2.954332176633e-01    6  6  1  1
 -4.967556315518e-10    6  6  2  1
  2.954332120707e-01    6  6  2  2
  4.969953181260e-09    6  6  3  1
  4.485006563776e-09    6  6  3  2
  2.954333186975e-01    6  6  3  3
  2.311437128694e-09    6  6  4  1
  8.940845697924e-09    6  6  4  2
  3.218360140715e-09    6  6  4  3
  2.954333795972e-01    6  6  4  4
  8.847802807423e-10    6  6  5  1
 -4.807324133592e-09    6  6  5  2
  9.264693348019e-10    6  6  5  3
  7.243909610067e-09    6  6  5  4
  2.954333951138e-01    6  6  5  5
  1.581864544463e-07    6  6  6  1
  1.084933312197e-06    6  6  6  2
 -4.263795714553e-09    6  6  6  3
  5.975389242296e-07    6  6  6  4
  1.683646048844e-06    6  6  6  5
  2.299953522812e-01    6  6  6  6
 -3.311265800166e+00    1  1  0  0
 -1.311236441131e-09    2  1  0  0
 -3.311265818703e+00    2  2  0  0
  9.597973680769e-09    3  1  0  0
  1.149425450669e-08    3  2  0  0
 -3.311265616245e+00    3  3  0  0
  6.256856646576e-09    4  1  0  0
  2.081404105927e-08    4  2  0  0
  8.200301177478e-09    4  3  0  0
 -3.311265498265e+00    4  4  0  0
  2.752970900973e-09    5  1  0  0
 -8.606173141774e-09    5  2  0  0
  2.515767323242e-09    5  3  0  0
  1.845972205377e-08    5  4  0  0
 -3.311265478827e+00    5  5  0  0
 -3.405388963017e-06    6  1  0  0
 -2.336290974435e-05    6  2  0  0
  9.087191782239e-08    6  3  0  0
 -1.286919522722e-05    6  4  0  0
 -3.625134668776e-05    6  5  0  0
 -1.659438701284e+00    6  6  0  0
    -76.102824238580   0  0  0  0
