#INFO: **** input file is /projects/bamu3429/BENCHMARK/fresh_atoms/MRPT/vtz/atoms/Cr_1/mrpt.py ****
import json
from pyscf import gto,scf,mcscf, fci, lo, ci, cc
from pyscf.scf import ROHF, UHF,ROKS
import numpy as np
import pandas as pd

# THIS IS WERE IT STARTS ====================================

df=json.load(open("../../../trail.json"))

spins={'Sc':1, 'Ti':2, 'V':3, 'Cr':6, 'Mn':5, 'Fe':4, 'Cu':1}

nd={'Sc':(1,0), 'Ti':(2,0), 'V':(3,0), 'Cr':(5,0), 'Mn':(5,0), 'Fe':(5,1), 'Cu':(5,5)}

cas={'Sc':3, 'Ti':4, 'V':5, 'Cr':6, 'Mn':7, 'Fe':8, 'Cu':11}

datacsv={}
for nm in ['atom','charge','method','basis','pseudopotential','hf',
           'totalenergy','totalenergy-stocherr','totalenergy-syserr']:
  datacsv[nm]=[]

basis='vtz'
el='Cr'
charge=1

mol=gto.Mole()
mol.ecp={}
mol.basis={}
mol.ecp[el]=gto.basis.parse_ecp(df[el]['ecp'])
mol.basis[el]=gto.basis.parse(df[el][basis])
mol.charge=charge
if el == 'Cr' or el == 'Cu':
  mol.spin=spins[el]-charge
else:
  mol.spin=spins[el]+charge
mol.build(atom="%s 0. 0. 0."%el,verbose=4)

m=ROHF(mol)
m.level_shift=1000.0
dm=m.from_chk("../../../../HF/atoms/"+el+basis+str(charge)+".chk")
hf=m.kernel(dm)
m.analyze()

from pyscf.shciscf import shci
mc = shci.SHCISCF(m, 6, cas[el]-charge)
#mc.fcisolver.conv_tol = 1e-14
mc.fcisolver.mpiprefix="mpirun -np 28"
mc.fcisolver.num_thrds=12
mc.verbose = 4
cas=mc.kernel()[0]
 
from pyscf.icmpspt import icmpspt
pt=icmpspt.icmpspt(mc,rdmM=500, PTM=1000,\
                          pttype="MRLCC",\
                          third_order=True,\
                          fully_ic=True,\
                          do_dm4=True)

datacsv['atom'].append(el)
datacsv['charge'].append(charge)
datacsv['method'].append('MRPT')
datacsv['basis'].append(basis)
datacsv['pseudopotential'].append('trail')
datacsv['hf'].append(hf)
datacsv['totalenergy'].append(cas+pt)
datacsv['totalenergy-stocherr'].append(0.0)
datacsv['totalenergy-syserr'].append(0.0)
pd.DataFrame(datacsv).to_csv(el+".csv",index=False)

#INFO: ******************** input file end ********************


System: ('Linux', 'bnode0304.rc.int.colorado.edu', '3.10.0-514.41.1.el7.x86_64', '#1 SMP Wed Jan 17 10:26:16 EST 2018', 'x86_64', 'x86_64')  Threads 28
Python 2.7.11 (default, Mar 22 2016, 01:42:54) 
[GCC Intel(R) C++ gcc 4.8 mode]
numpy 1.11.1  scipy 0.17.1
Date: Thu Mar 29 15:03:29 2018
PySCF version 1.4
PySCF path  /projects/bamu3429/softwares/pyscf_uptodate/pyscf
GIT ORIG_HEAD e2292e6edec2b0e0024c21b81de03db1d7bd4121
GIT HEAD      ref: refs/heads/master
GIT master branch  f3591ef22170896a4cdc2aadaa6f5da388ffcadb

[INPUT] VERBOSE 4
[INPUT] num atoms = 1
[INPUT] num electrons = 13
[INPUT] charge = 1
[INPUT] spin (= nelec alpha-beta = 2S) = 5
[INPUT] symmetry False subgroup None
[INPUT]  1 Cr     0.000000000000   0.000000000000   0.000000000000 AA    0.000000000000   0.000000000000   0.000000000000 Bohr
[INPUT] ---------------- BASIS SET ---------------- 
[INPUT] l, kappa, [nprim/nctr], expnt,             c_1 c_2 ...
[INPUT] Cr
[INPUT] 0    0    [12   /1   ]  41.45590127       0.010332
                                22.20089455       -0.091393
                                12.37022616       0.412444
                                7.15443966        -0.722409
                                3.63012556        0.039693
                                1.88942247        0.321055
                                1.04381355        0.652182
                                0.47307333        0.264443
                                0.22628807        -0.008646
                                0.10750747        0.012188
                                0.05101028        -0.00242
                                0.0242372         0.001733
[INPUT] 0    0    [12   /1   ]  41.45590127       -0.001971
                                22.20089455       0.019152
                                12.37022616       -0.094562
                                7.15443966        0.178991
                                3.63012556        -0.015716
                                1.88942247        -0.084882
                                1.04381355        -0.243744
                                0.47307333        -0.214624
                                0.22628807        0.055092
                                0.10750747        0.415903
                                0.05101028        0.543473
                                0.0242372         0.170131
[INPUT] 0    0    [12   /1   ]  41.45590127       -0.005985
                                22.20089455       0.069637
                                12.37022616       -0.403654
                                7.15443966        0.899468
                                3.63012556        -0.19655
                                1.88942247        -1.358682
                                1.04381355        -0.066602
                                0.47307333        0.748011
                                0.22628807        0.743168
                                0.10750747        0.120335
                                0.05101028        -0.554574
                                0.0242372         -0.284337
[INPUT] 0    0    [12   /1   ]  41.45590127       -0.005431
                                22.20089455       0.075825
                                12.37022616       -0.506871
                                7.15443966        1.314927
                                3.63012556        -0.7377
                                1.88942247        -2.271634
                                1.04381355        1.711851
                                0.47307333        1.720924
                                0.22628807        -1.434003
                                0.10750747        -1.046849
                                0.05101028        0.595081
                                0.0242372         0.606245
[INPUT] 0    0    [1    /1   ]  0.0242372            1
[INPUT] 0    0    [1    /1   ]  0.01151614           1
[INPUT] 1    0    [12   /1   ]  28.88080716       -0.002973
                                13.19380569       0.044202
                                7.25722596        -0.232476
                                4.84342676        0.167654
                                2.76949909        0.179744
                                1.50719356        0.46058
                                0.72516508        0.338218
                                0.36385743        0.097984
                                0.16204617        0.012145
                                0.07447705        -0.000948
                                0.03422994        0.000821
                                0.01573221        -0.00022
[INPUT] 1    0    [12   /1   ]  28.88080716       0.000536
                                13.19380569       -0.009363
                                7.25722596        0.054752
                                4.84342676        -0.042977
                                2.76949909        -0.049244
                                1.50719356        -0.128712
                                0.72516508        -0.11682
                                0.36385743        0.044517
                                0.16204617        0.322192
                                0.07447705        0.482878
                                0.03422994        0.275764
                                0.01573221        0.025472
[INPUT] 1    0    [12   /1   ]  28.88080716       -0.000428
                                13.19380569       0.034429
                                7.25722596        -0.307446
                                4.84342676        0.24996
                                2.76949909        0.789151
                                1.50719356        0.129313
                                0.72516508        -0.921684
                                0.36385743        -0.378847
                                0.16204617        0.566809
                                0.07447705        0.440905
                                0.03422994        0.024535
                                0.01573221        0.005078
[INPUT] 1    0    [12   /1   ]  28.88080716       0.002227
                                13.19380569       0.046024
                                7.25722596        -0.727345
                                4.84342676        1.251481
                                2.76949909        1.00182
                                1.50719356        -1.701806
                                0.72516508        -0.622978
                                0.36385743        1.581831
                                0.16204617        -0.060905
                                0.07447705        -0.667464
                                0.03422994        -0.031147
                                0.01573221        -0.01129
[INPUT] 1    0    [1    /1   ]  0.01573221           1
[INPUT] 1    0    [1    /1   ]  0.00723058           1
[INPUT] 2    0    [10   /1   ]  46.50908408       0.000358
                                21.60133229       -0.010512
                                11.03652449       0.11118
                                4.54288797        0.164184
                                2.18180243        0.267436
                                1.04009058        0.310836
                                0.48262909        0.28353
                                0.21570372        0.173079
                                0.10059873        0.057279
                                0.04653409        0.00937
[INPUT] 2    0    [10   /1   ]  46.50908408       0.000725
                                21.60133229       0.005694
                                11.03652449       -0.104091
                                4.54288797        -0.217444
                                2.18180243        -0.413534
                                1.04009058        -0.07805
                                0.48262909        0.290464
                                0.21570372        0.417258
                                0.10059873        0.237439
                                0.04653409        0.051282
[INPUT] 2    0    [10   /1   ]  46.50908408       -0.003236
                                21.60133229       0.00626
                                11.03652449       0.082765
                                4.54288797        0.409918
                                2.18180243        0.374551
                                1.04009058        -0.692379
                                0.48262909        -0.433198
                                0.21570372        0.307071
                                0.10059873        0.45679
                                0.04653409        0.105679
[INPUT] 2    0    [1    /1   ]  0.04653409           1
[INPUT] 2    0    [1    /1   ]  0.02152533           1
[INPUT] 3    0    [1    /1   ]  2.951278             1
[INPUT] 3    0    [1    /1   ]  0.820301             1
[INPUT] 3    0    [1    /1   ]  0.22800079           1
[INPUT] 4    0    [1    /1   ]  2.625115             1
[INPUT] 4    0    [1    /1   ]  0.72964472           1
nuclear repulsion = 0
number of shells = 22
number of NR pGTOs = 399
number of NR cGTOs = 88
basis = {'Cr': [[0, [41.45590127, 0.010332], [22.20089455, -0.091393], [12.37022616, 0.412444], [7.15443966, -0.722409], [3.63012556, 0.039693], [1.88942247, 0.321055], [1.04381355, 0.652182], [0.47307333, 0.264443], [0.22628807, -0.008646], [0.10750747, 0.012188], [0.05101028, -0.00242], [0.0242372, 0.001733]], [0, [41.45590127, -0.001971], [22.20089455, 0.019152], [12.37022616, -0.094562], [7.15443966, 0.178991], [3.63012556, -0.015716], [1.88942247, -0.084882], [1.04381355, -0.243744], [0.47307333, -0.214624], [0.22628807, 0.055092], [0.10750747, 0.415903], [0.05101028, 0.543473], [0.0242372, 0.170131]], [0, [41.45590127, -0.005985], [22.20089455, 0.069637], [12.37022616, -0.403654], [7.15443966, 0.899468], [3.63012556, -0.19655], [1.88942247, -1.358682], [1.04381355, -0.066602], [0.47307333, 0.748011], [0.22628807, 0.743168], [0.10750747, 0.120335], [0.05101028, -0.554574], [0.0242372, -0.284337]], [0, [41.45590127, -0.005431], [22.20089455, 0.075825], [12.37022616, -0.506871], [7.15443966, 1.314927], [3.63012556, -0.7377], [1.88942247, -2.271634], [1.04381355, 1.711851], [0.47307333, 1.720924], [0.22628807, -1.434003], [0.10750747, -1.046849], [0.05101028, 0.595081], [0.0242372, 0.606245]], [0, [0.0242372, 1.0]], [0, [0.01151614, 1.0]], [1, [28.88080716, -0.002973], [13.19380569, 0.044202], [7.25722596, -0.232476], [4.84342676, 0.167654], [2.76949909, 0.179744], [1.50719356, 0.46058], [0.72516508, 0.338218], [0.36385743, 0.097984], [0.16204617, 0.012145], [0.07447705, -0.000948], [0.03422994, 0.000821], [0.01573221, -0.00022]], [1, [28.88080716, 0.000536], [13.19380569, -0.009363], [7.25722596, 0.054752], [4.84342676, -0.042977], [2.76949909, -0.049244], [1.50719356, -0.128712], [0.72516508, -0.11682], [0.36385743, 0.044517], [0.16204617, 0.322192], [0.07447705, 0.482878], [0.03422994, 0.275764], [0.01573221, 0.025472]], [1, [28.88080716, -0.000428], [13.19380569, 0.034429], [7.25722596, -0.307446], [4.84342676, 0.24996], [2.76949909, 0.789151], [1.50719356, 0.129313], [0.72516508, -0.921684], [0.36385743, -0.378847], [0.16204617, 0.566809], [0.07447705, 0.440905], [0.03422994, 0.024535], [0.01573221, 0.005078]], [1, [28.88080716, 0.002227], [13.19380569, 0.046024], [7.25722596, -0.727345], [4.84342676, 1.251481], [2.76949909, 1.00182], [1.50719356, -1.701806], [0.72516508, -0.622978], [0.36385743, 1.581831], [0.16204617, -0.060905], [0.07447705, -0.667464], [0.03422994, -0.031147], [0.01573221, -0.01129]], [1, [0.01573221, 1.0]], [1, [0.00723058, 1.0]], [2, [46.50908408, 0.000358], [21.60133229, -0.010512], [11.03652449, 0.11118], [4.54288797, 0.164184], [2.18180243, 0.267436], [1.04009058, 0.310836], [0.48262909, 0.28353], [0.21570372, 0.173079], [0.10059873, 0.057279], [0.04653409, 0.00937]], [2, [46.50908408, 0.000725], [21.60133229, 0.005694], [11.03652449, -0.104091], [4.54288797, -0.217444], [2.18180243, -0.413534], [1.04009058, -0.07805], [0.48262909, 0.290464], [0.21570372, 0.417258], [0.10059873, 0.237439], [0.04653409, 0.051282]], [2, [46.50908408, -0.003236], [21.60133229, 0.00626], [11.03652449, 0.082765], [4.54288797, 0.409918], [2.18180243, 0.374551], [1.04009058, -0.692379], [0.48262909, -0.433198], [0.21570372, 0.307071], [0.10059873, 0.45679], [0.04653409, 0.105679]], [2, [0.04653409, 1.0]], [2, [0.02152533, 1.0]], [3, [2.951278, 1.0]], [3, [0.820301, 1.0]], [3, [0.22800079, 1.0]], [4, [2.625115, 1.0]], [4, [0.72964472, 1.0]]]}
ecp = {'Cr': [10, [[-1, [[], [[13.07675203, 14.0]], [[15.15807582, 1258.1555038], [4.62785686, -98.60998187], [15.41136599, -6552.46055066], [15.38690637, 5353.09061557]], [[5.24897308, 183.07452839]]]], [0, [[], [], [[9.77680844, -91901.2080948], [9.95980111, 96320.14803227], [8.62275214, 3928.3135917], [12.29288144, -10977.62459544], [18.41316592, -1741.60409682], [16.38541961, 4413.26493033]], []]], [1, [[], [], [[12.00099996, -22156.17142851], [11.46524435, 21551.07876111], [16.23852226, 3703.78784703], [18.43861108, -1424.18632323], [8.88877941, -1964.93568469], [7.52644784, 317.50498882]], []]], [2, [[], [], [[11.1066837, -5435.29666496], [8.49801115, 7350.69608766], [12.28065533, 2443.80334995], [8.1885354, -5401.76770998], [14.34306836, 3881.23075486], [15.24784181, -2855.87137953]], []]]]]}
CPU time:         3.45


******** <class 'pyscf.scf.rohf.ROHF'> flags ********
method = ROHF
initial guess = minao
damping factor = 0
level shift factor = 1000.0
DIIS = <class 'pyscf.scf.diis.CDIIS'>
DIIS start cycle = 1
DIIS space = 8
SCF tol = 1e-09
SCF gradient tol = None
max. SCF cycles = 50
direct_scf = True
direct_scf_tol = 1e-13
chkfile to save SCF result = /projects/bamu3429/BENCHMARK/fresh_atoms/MRPT/vtz/atoms/Cr_1/tmpzEE7Ut
max_memory 4000 MB (current use 170 MB)
num. doubly occ = 4  num. singly occ = 5
Set gradient conv threshold to 3.16228e-05
init E= -85.9964814683389
  HOMO = 499.778888464092  LUMO = 999.801528419009
cycle= 1 E= -85.9964814683389  delta_E= -5.68e-14  |g|= 3.21e-06  |ddm|= 2.27e-08
  HOMO = -0.221111536479354  LUMO = -0.198471580929968
Extra cycle  E= -85.9964814682355  delta_E= 1.03e-10  |g|= 6.66e-06  |ddm|= 4.87e-05
converged SCF energy = -85.9964814682355
**** MO energy ****
                Roothaan           | alpha              | beta
MO #1   energy= -3.67749399728056  | -3.86386793805748  | -3.49112005650363  occ= 2
MO #2   energy= -2.37715566946809  | -2.60597501234926  | -2.14833632658692  occ= 2
MO #3   energy= -2.3771556020587   | -2.60597485166999  | -2.14833635244743  occ= 2
MO #4   energy= -2.37715548611965  | -2.60597457810442  | -2.14833639413489  occ= 2
MO #5   energy= -0.221111569944414 | -0.646197650126206 | 0.203974614465499  occ= 1
MO #6   energy= -0.221111568746137 | -0.646197665928316 | 0.203974617294204  occ= 1
MO #7   energy= -0.221111551090841 | -0.646197612885995 | 0.203974624863853  occ= 1
MO #8   energy= -0.221111542467938 | -0.646197577570544 | 0.203974627914149  occ= 1
MO #9   energy= -0.221111536479354 | -0.646197588722791 | 0.203974633488298  occ= 1
MO #10  energy= -0.198471580929968 | -0.214670889387187 | -0.182272272753784 occ= 0
MO #11  energy= -0.110760134487479 | -0.116877660724116 | -0.104642608250875 occ= 0
MO #12  energy= -0.110760106166908 | -0.116877687879063 | -0.104642524454876 occ= 0
MO #13  energy= -0.110760057536229 | -0.116877734445512 | -0.104642380626996 occ= 0
MO #14  energy= -0.0720231906191797 | -0.0747319717154578 | -0.0693144095250442 occ= 0
MO #15  energy= -0.0499205913280032 | -0.0516710183861826 | -0.0481701642698259 occ= 0
MO #16  energy= -0.0499205844622475 | -0.0516710257515575 | -0.0481701431729408 occ= 0
MO #17  energy= -0.0499205726830026 | -0.0516710384091457 | -0.04817010695686  occ= 0
MO #18  energy= -0.0473969280548298 | -0.0484534408039742 | -0.0463405123952009 occ= 0
MO #19  energy= -0.0473969257910858 | -0.0484534389180606 | -0.0463405113722722 occ= 0
MO #20  energy= -0.0473968987183673 | -0.0484534127151434 | -0.0463404843074925 occ= 0
MO #21  energy= -0.047396882702283 | -0.0484533973363722 | -0.0463404688473991 occ= 0
MO #22  energy= -0.0473968774616562 | -0.0484533921028929 | -0.0463404627664567 occ= 0
MO #23  energy= 0.0172155855275849 | 0.0063454582936842 | 0.0280857127614655 occ= 0
MO #24  energy= 0.0172156090935308 | 0.00634540168389779 | 0.0280858165031151 occ= 0
MO #25  energy= 0.0172156495225578 | 0.0063453044182285 | 0.028085994626864  occ= 0
MO #26  energy= 0.0526637214922768 | 0.0465773820196579 | 0.0587499900519672 occ= 0
MO #27  energy= 0.0526637281286696 | 0.0465773861591125 | 0.0587499937017812 occ= 0
MO #28  energy= 0.052663793767705  | 0.0465774388118653 | 0.0587500695131987 occ= 0
MO #29  energy= 0.0526638330263267 | 0.0465774699257009 | 0.0587501133359163 occ= 0
MO #30  energy= 0.0526638462583508 | 0.0465774803027553 | 0.0587501276475532 occ= 0
MO #31  energy= 0.0787840843397178 | 0.0666186770004891 | 0.0909494916763183 occ= 0
MO #32  energy= 0.618790932101546  | 0.599851532328208  | 0.637730331874882  occ= 0
MO #33  energy= 0.618790933350116  | 0.599851532948611  | 0.637730333751619  occ= 0
MO #34  energy= 0.618791114015266  | 0.599851643129081  | 0.637730584901447  occ= 0
MO #35  energy= 0.618791140391239  | 0.599851658303685  | 0.637730622478791  occ= 0
MO #36  energy= 0.618791212432047  | 0.599851702712598  | 0.637730722151489  occ= 0
MO #37  energy= 0.618791321426389  | 0.599851768887452  | 0.637730873965324  occ= 0
MO #38  energy= 0.61879133050934   | 0.59985177451704   | 0.637730886501639  occ= 0
MO #39  energy= 0.72060346032397   | 0.66297556109236   | 0.778231419209917  occ= 0
MO #40  energy= 0.720603480762083  | 0.662975573399002  | 0.778231438702104  occ= 0
MO #41  energy= 0.720603664444891  | 0.662975691635335  | 0.778231681418854  occ= 0
MO #42  energy= 0.720603773985922  | 0.662975762036353  | 0.778231824765803  occ= 0
MO #43  energy= 0.720603811663378  | 0.662975785936505  | 0.778231871966009  occ= 0
MO #44  energy= 0.800594582742102  | 0.769617639544871  | 0.831571525939583  occ= 0
MO #45  energy= 1.48358585989041   | 1.42639091185677   | 1.54078080792404   occ= 0
MO #46  energy= 1.48358596214257   | 1.42639092410729   | 1.54078100017785   occ= 0
MO #47  energy= 1.48358613811474   | 1.42639094517516   | 1.54078133105433   occ= 0
MO #48  energy= 2.64341295831658   | 2.55335164274037   | 2.73347427389279   occ= 0
MO #49  energy= 2.64341295968925   | 2.55335164369313   | 2.73347427568536   occ= 0
MO #50  energy= 2.64341314538971   | 2.55335176337609   | 2.73347452740333   occ= 0
MO #51  energy= 2.64341317306788   | 2.55335178167387   | 2.73347456446188   occ= 0
MO #52  energy= 2.64341324682177   | 2.55335182896836   | 2.73347466467517   occ= 0
MO #53  energy= 2.6434133589989    | 2.55335190150725   | 2.73347481649055   occ= 0
MO #54  energy= 2.64341336828317   | 2.55335190744281   | 2.73347482912353   occ= 0
MO #55  energy= 3.15232271889756   | 3.115697662633     | 3.18894777516211   occ= 0
MO #56  energy= 3.15232271909957   | 3.1156976627708    | 3.18894777542833   occ= 0
MO #57  energy= 3.15232295412178   | 3.11569783143822   | 3.18894807680533   occ= 0
MO #58  energy= 3.15232296151671   | 3.1156978366295    | 3.18894808640393   occ= 0
MO #59  energy= 3.1523230961178    | 3.11569793342712   | 3.18894825880847   occ= 0
MO #60  energy= 3.15232315434856   | 3.11569797493384   | 3.18894833376329   occ= 0
MO #61  energy= 3.15232319493372   | 3.11569800419483   | 3.1889483856726    occ= 0
MO #62  energy= 3.15232334787946   | 3.11569811400794   | 3.18894858175097   occ= 0
MO #63  energy= 3.15232335096439   | 3.11569811623032   | 3.18894858569844   occ= 0
MO #64  energy= 3.4622122012888    | 3.37192631945806   | 3.55249810445791   occ= 0
MO #65  energy= 3.46221220711442   | 3.37192632923923   | 3.55249810556016   occ= 0
MO #66  energy= 3.46221224806815   | 3.37192639095783   | 3.55249812551328   occ= 0
MO #67  energy= 3.46221227231815   | 3.37192642772726   | 3.55249813710602   occ= 0
MO #68  energy= 3.46221228111628   | 3.37192644162043   | 3.55249814039184   occ= 0
MO #69  energy= 4.45946877914631   | 4.39857845548691   | 4.5203591028058    occ= 0
MO #70  energy= 6.49648695568837   | 6.43364656769089   | 6.55932734368585   occ= 0
MO #71  energy= 6.4964869924513    | 6.43364666103205   | 6.55932732387056   occ= 0
MO #72  energy= 6.49648705646424   | 6.43364682146174   | 6.55932729146673   occ= 0
MO #73  energy= 8.6766366091039    | 8.56982506014134   | 8.78344815806648   occ= 0
MO #74  energy= 8.67663661095174   | 8.56982505835989   | 8.78344816354361   occ= 0
MO #75  energy= 8.67663663259297   | 8.56982503122553   | 8.78344823396042   occ= 0
MO #76  energy= 8.67663664713847   | 8.56982501536169   | 8.78344827891525   occ= 0
MO #77  energy= 8.67663665181076   | 8.5698250062187    | 8.7834482974028    occ= 0
MO #78  energy= 8.67663668759309   | 8.56982496257013   | 8.78344841261607   occ= 0
MO #79  energy= 8.6766366877466    | 8.56982496184332   | 8.78344841364986   occ= 0
MO #80  energy= 11.4825894440434   | 11.4099046601582   | 11.5552742279285   occ= 0
MO #81  energy= 11.4825894441001   | 11.4099046602959   | 11.5552742279042   occ= 0
MO #82  energy= 11.4825894452347   | 11.4099046402891   | 11.5552742501804   occ= 0
MO #83  energy= 11.4825894456253   | 11.4099046376502   | 11.5552742536003   occ= 0
MO #84  energy= 11.4825894462672   | 11.4099046287296   | 11.5552742638048   occ= 0
MO #85  energy= 11.4825894473519   | 11.4099046160937   | 11.5552742786102   occ= 0
MO #86  energy= 11.482589447503    | 11.4099046144849   | 11.555274280521    occ= 0
MO #87  energy= 11.4825894492675   | 11.4099045867626   | 11.5552743117724   occ= 0
MO #88  energy= 11.4825894492798   | 11.409904586755    | 11.5552743118047   occ= 0
 ** Mulliken pop on meta-lowdin orthogonal AOs  **
 ** Mulliken pop  **
pop of  0Cr 3s        1.99990
pop of  0Cr 4s        0.00000
pop of  0Cr 5s        0.00010
pop of  0Cr 6s        0.00000
pop of  0Cr 7s        0.00000
pop of  0Cr 8s        0.00000
pop of  0Cr 3px       1.99986
pop of  0Cr 3py       1.99986
pop of  0Cr 3pz       1.99986
pop of  0Cr 4px       0.00007
pop of  0Cr 4py       0.00007
pop of  0Cr 4pz       0.00007
pop of  0Cr 5px       0.00006
pop of  0Cr 5py       0.00006
pop of  0Cr 5pz       0.00006
pop of  0Cr 6px       0.00001
pop of  0Cr 6py       0.00001
pop of  0Cr 6pz       0.00001
pop of  0Cr 7px       0.00000
pop of  0Cr 7py       0.00000
pop of  0Cr 7pz       0.00000
pop of  0Cr 8px       0.00000
pop of  0Cr 8py       0.00000
pop of  0Cr 8pz       0.00000
pop of  0Cr 3dxy      0.99964
pop of  0Cr 3dyz      0.99964
pop of  0Cr 3dz^2     0.99964
pop of  0Cr 3dxz      0.99964
pop of  0Cr 3dx2-y2    0.99964
pop of  0Cr 4dxy      0.00027
pop of  0Cr 4dyz      0.00027
pop of  0Cr 4dz^2     0.00027
pop of  0Cr 4dxz      0.00027
pop of  0Cr 4dx2-y2    0.00027
pop of  0Cr 5dxy      0.00002
pop of  0Cr 5dyz      0.00002
pop of  0Cr 5dz^2     0.00002
pop of  0Cr 5dxz      0.00002
pop of  0Cr 5dx2-y2    0.00002
pop of  0Cr 6dxy      0.00006
pop of  0Cr 6dyz      0.00006
pop of  0Cr 6dz^2     0.00006
pop of  0Cr 6dxz      0.00006
pop of  0Cr 6dx2-y2    0.00006
pop of  0Cr 7dxy      0.00001
pop of  0Cr 7dyz      0.00001
pop of  0Cr 7dz^2     0.00001
pop of  0Cr 7dxz      0.00001
pop of  0Cr 7dx2-y2    0.00001
pop of  0Cr 4fy^3     0.00000
pop of  0Cr 4fxyz     0.00000
pop of  0Cr 4fyz^2    0.00000
pop of  0Cr 4fz^3     0.00000
pop of  0Cr 4fxz^2    0.00000
pop of  0Cr 4fzx^2    0.00000
pop of  0Cr 4fx^3     0.00000
pop of  0Cr 5fy^3     0.00000
pop of  0Cr 5fxyz     0.00000
pop of  0Cr 5fyz^2    0.00000
pop of  0Cr 5fz^3     0.00000
pop of  0Cr 5fxz^2    0.00000
pop of  0Cr 5fzx^2    0.00000
pop of  0Cr 5fx^3     0.00000
pop of  0Cr 6fy^3     0.00000
pop of  0Cr 6fxyz     0.00000
pop of  0Cr 6fyz^2    0.00000
pop of  0Cr 6fz^3     0.00000
pop of  0Cr 6fxz^2    0.00000
pop of  0Cr 6fzx^2    0.00000
pop of  0Cr 6fx^3     0.00000
pop of  0Cr 5g-4      0.00000
pop of  0Cr 5g-3      0.00000
pop of  0Cr 5g-2      0.00000
pop of  0Cr 5g-1      0.00000
pop of  0Cr 5g 0      0.00000
pop of  0Cr 5g 1      0.00000
pop of  0Cr 5g 2      0.00000
pop of  0Cr 5g 3      0.00000
pop of  0Cr 5g 4      0.00000
pop of  0Cr 6g-4      0.00000
pop of  0Cr 6g-3      0.00000
pop of  0Cr 6g-2      0.00000
pop of  0Cr 6g-1      0.00000
pop of  0Cr 6g 0      0.00000
pop of  0Cr 6g 1      0.00000
pop of  0Cr 6g 2      0.00000
pop of  0Cr 6g 3      0.00000
pop of  0Cr 6g 4      0.00000
 ** Mulliken atomic charges  **
charge of  0Cr =      1.00000

******** <class 'pyscf.mcscf.mc1step.CASSCF'> flags ********
CAS (5e+0e, 6o), ncore = 4, nvir = 78
max_cycle_macro = 50
max_cycle_micro = 4
conv_tol = 1e-07
conv_tol_grad = None
orbital rotation max_stepsize = 0.02
augmented hessian ah_max_cycle = 30
augmented hessian ah_conv_tol = 1e-12
augmented hessian ah_linear dependence = 1e-14
augmented hessian ah_level shift = 0
augmented hessian ah_start_tol = 2.5
augmented hessian ah_start_cycle = 3
augmented hessian ah_grad_trust_region = 3
kf_trust_region = 3
kf_interval = 4
ci_response_space = 4
ci_grad_trust_region = 3
with_dep4 0
natorb = False
canonicalization = True
chkfile = ./scratch/125047/tmpIQA7N5
max_memory 4000 MB (current use 279 MB)
internal_rotation = False

******** SHCI flags ********
executable             = /home/bamu3429/softwares/dice/Dice
mpiprefix              = mpirun -np 28
scratchDirectory       = ./scratch/125047
integralFile           = ./FCIDUMP
configFile             = ./input.dat
outputFile             = ./output.dat
maxIter                = 6
sweep_iter             = []
sweep_epsilon          = []
nPTiter                = 0
Stochastic             = True
fullrestart            = False
restart                = False
num_thrds              = 12
memory                 = None

CASCI E = -85.9964814682342  S^2 = 8.7500000
Set conv_tol_grad to 0.000316228
macro iter 1 (1 JK  1 micro), CASSCF E = -85.9964814682342  dE = 0  S^2 = 8.7500000
               |grad[o]|=5.33e-06  |grad[c]|= None  |ddm|=    0
1-step CASSCF converged in 1 macro (1 JK 1 micro) steps
CASSCF canonicalization
CASSCF energy = -85.9964814682342


--------------------------------------------------
                 ICMPSPT CALCULATION              
--------------------------------------------------

Perturbation type: MRLCC
With fully internally contracted scheme
With third order correction

Preparing necessary RDMs
......production of RDMs took       0.96 sec
Reading binary 4RDM from DICE
......reading the RDM took          1.15 sec

(GOOD) Trace 4RDM:    120.0 =    5*    4*    3*    2
(GOOD) Trace 3RDM:     60.0 =    5*    4*    3
(GOOD) Trace 2RDM:     20.0 =    5*    4
(GOOD) Trace 1RDM:      5.0 =    5

Producing the integrals
......production of INT took      89.58 sec

Energy_core =  -76.1028242386
Energy      =  -85.9964814682

WARNING: Have to use natural orbitals from CAASCF
         offdiagonal elements: 0.679836919329

Basic ingredients written to int/
......savings of INGREDIENTS took      17.74 sec

Second-order:
perturber CCVV --        -0.107447544
perturber CCAV --        -0.050776569
perturber ACVV --        -0.160397366
perturber CCAA --        -0.023740333
perturber AAVV --        -0.084185619
perturber CAAV --        -0.093839895
perturber AAAV --        -0.000000000
perturber AAAC --        -0.000000031
Total:                   -0.520387358

Third-order:              0.003049718

Total PT       --        -0.517337639

