 &FCI NORB=9 ,NELEC=8 ,MS2=2,
  ORBSYM=1,1,1,1,1,1,1,1,1,
  ISYM=1,
 &END
  6.525668417122e-01    1  1  1  1
 -1.486436340992e-10    2  1  1  1
  2.950192071497e-02    2  1  2  1
  5.868483773883e-01    2  2  1  1
 -9.220464524790e-11    2  2  2  1
  6.442898355490e-01    2  2  2  2
  2.981357900855e-09    3  1  1  1
  8.563266357925e-10    3  1  2  2
  2.950192071499e-02    3  1  3  1
  4.369526574276e-10    3  2  2  1
 -2.715406921668e-07    3  2  2  2
 -2.090188872720e-11    3  2  3  1
  2.873438569685e-02    3  2  3  2
  5.868483773885e-01    3  3  1  1
 -5.080047231162e-11    3  3  2  1
  5.868042858028e-01    3  3  2  2
  1.720260619616e-09    3  3  3  1
  2.715408247812e-07    3  3  3  2
  6.442898355495e-01    3  3  3  3
  2.252628294311e-02    4  1  1  1
 -8.504276700820e-11    4  1  2  1
  1.653024345768e-02    4  1  2  2
  1.863421760142e-09    4  1  3  1
  1.653024345768e-02    4  1  3  3
  4.510976369616e-03    4  1  4  1
 -2.088626562332e-10    4  2  1  1
 -5.360651914994e-04    4  2  2  1
 -1.093545660556e-10    4  2  2  2
 -2.418976250843e-07    4  2  3  1
 -1.885596635879e-10    4  2  3  2
 -1.296038604904e-10    4  2  3  3
 -2.780036346217e-11    4  2  4  1
  1.717264613756e-03    4  2  4  2
  4.891517891134e-09    4  3  1  1
  2.418976258480e-07    4  3  2  1
  3.185901069071e-09    4  3  2  2
 -5.360651914973e-04    4  3  3  1
  9.998532105923e-12    4  3  3  2
  2.811531082710e-09    4  3  3  3
  6.252805612160e-10    4  3  4  1
  1.717264613752e-03    4  3  4  3
  2.292860116416e-01    4  4  1  1
 -2.281969448242e-10    4  4  2  1
  2.121636082440e-01    4  4  2  2
  5.014947539770e-09    4  4  3  1
  2.121636082440e-01    4  4  3  3
  2.983538085489e-03    4  4  4  1
 -3.034896972345e-11    4  4  4  2
  6.055332667125e-10    4  4  4  3
  2.644863793601e-01    4  4  4  4
 -2.950391180468e-11    5  1  2  1
  2.391184104252e-04    5  1  2  2
 -4.616055434029e-10    5  1  3  1
 -8.641792676547e-06    5  1  3  2
 -2.391184104243e-04    5  1  3  3
  1.325476880781e-11    5  1  4  2
  1.653595483451e-10    5  1  4  3
  7.689289133459e-03    5  1  5  1
 -1.975934952461e-11    5  2  1  1
 -1.864620259344e-03    5  2  2  1
  1.467308628293e-10    5  2  2  2
  6.285124356437e-05    5  2  3  1
 -6.520398873704e-10    5  2  3  2
  1.207588944212e-10    5  2  3  3
  5.467974554925e-12    5  2  4  1
  5.135986888435e-04    5  2  4  2
 -1.740155513621e-05    5  2  4  3
 -3.102763985771e-11    5  2  4  4
 -3.750700949126e-11    5  2  5  1
  4.518265485428e-03    5  2  5  2
 -1.294895042627e-09    5  3  1  1
  6.285124356484e-05    5  3  2  1
 -4.226015192821e-10    5  3  2  2
  1.864620259338e-03    5  3  3  1
 -2.259400335064e-12    5  3  3  2
  6.158221518813e-10    5  3  3  3
  1.254914020497e-10    5  3  4  1
 -1.740155513641e-05    5  3  4  2
 -5.135986888415e-04    5  3  4  3
  2.109886600950e-10    5  3  4  4
  8.502991461190e-10    5  3  5  1
  4.518265485418e-03    5  3  5  3
  4.215136701396e-11    5  4  2  1
  2.214478013780e-03    5  4  2  2
  5.227551110762e-10    5  4  3  1
 -7.441466739889e-05    5  4  3  2
 -2.214478013779e-03    5  4  3  3
  1.963422193276e-12    5  4  4  2
  4.695936770884e-11    5  4  4  3
  2.822433811178e-03    5  4  5  1
 -3.331086239891e-11    5  4  5  2
  6.636699706078e-10    5  4  5  3
  1.033083530757e-02    5  4  5  4
  3.838074973580e-01    5  5  1  1
 -6.762702330928e-10    5  5  2  1
  3.310948165024e-01    5  5  2  2
  1.495808910496e-08    5  5  3  1
  3.310948165022e-01    5  5  3  3
  2.426396288293e-02    5  5  4  1
 -2.414033638708e-10    5  5  4  2
  5.283501907048e-09    5  5  4  3
  3.126630576703e-01    5  5  4  4
 -9.484369763419e-11    5  5  5  2
  5.908704704256e-10    5  5  5  3
  6.514920082207e-01    5  5  5  5
  1.477234390331e-09    6  1  1  1
  1.023874169327e-02    6  1  2  1
  1.384223558669e-09    6  1  2  2
 -1.166226570284e-06    6  1  3  1
 -4.671958330162e-10    6  1  3  2
  1.342838425452e-09    6  1  3  3
  4.557350927288e-11    6  1  4  1
  4.826577564278e-04    6  1  4  2
 -6.532483652349e-08    6  1  4  3
  1.395744625948e-11    6  1  4  4
  1.017958748694e-11    6  1  5  1
  1.788615232635e-03    6  1  5  2
 -6.097348818549e-05    6  1  5  3
 -4.667194770103e-11    6  1  5  4
  4.082004747959e-11    6  1  5  5
  1.361529011898e-02    6  1  6  1
  1.366503144434e-01    6  2  1  1
  3.257413759947e-10    6  2  2  1
  1.800228003196e-01    6  2  2  2
 -5.411512096255e-09    6  2  3  1
 -5.432697696459e-07    6  2  3  2
  1.567143327342e-01    6  2  3  3
 -4.617991433155e-04    6  2  4  1
  1.620033301167e-11    6  2  4  2
 -3.706797660798e-10    6  2  4  3
 -2.982991915887e-02    6  2  4  4
 -1.404815582121e-03    6  2  5  1
  8.902181644652e-11    6  2  5  2
 -8.207651807270e-10    6  2  5  3
 -2.192555131077e-03    6  2  5  4
 -7.533034239030e-02    6  2  5  5
  1.013938801697e-09    6  2  6  1
  1.532974879898e-01    6  2  6  2
  5.669755567977e-08    6  3  1  1
 -2.724302752132e-10    6  3  2  1
  1.831630556247e-06    6  3  2  2
  7.014495532820e-11    6  3  3  1
  1.168120417915e-02    6  3  3  2
 -2.811964129990e-06    6  3  3  3
  1.159458828752e-07    6  3  4  1
  1.195387382420e-10    6  3  4  2
 -2.018189068682e-12    6  3  4  3
  9.218001114998e-07    6  3  4  4
  4.797302812716e-05    6  3  5  1
  4.252772276773e-10    6  3  5  2
 -9.050105240394e-12    6  3  5  3
  7.459852391492e-05    6  3  5  4
  3.722654112381e-06    6  3  5  5
  1.231944860565e-10    6  3  6  1
 -5.864656245411e-07    6  3  6  2
  1.288380862710e-02    6  3  6  3
  2.724228548840e-10    6  4  1  1
  2.151553994177e-03    6  4  2  1
  1.094466539060e-10    6  4  2  2
  2.818584157717e-07    6  4  3  1
  7.156183594813e-10    6  4  3  2
  1.778275283019e-10    6  4  3  3
  9.440098760669e-12    6  4  4  1
 -2.668268366452e-03    6  4  4  2
  9.430281936177e-08    6  4  4  3
  6.295250834150e-11    6  4  4  4
 -2.368378733682e-11    6  4  5  1
 -7.344774155083e-04    6  4  5  2
  2.478503381219e-05    6  4  5  3
 -1.057681541902e-11    6  4  5  4
  3.250693823067e-10    6  4  5  5
 -7.789679642273e-05    6  4  6  1
 -4.695065836314e-11    6  4  6  2
  5.130148002431e-11    6  4  6  3
  5.478628005795e-03    6  4  6  4
  2.103263429891e-10    6  5  1  1
  3.308607082187e-03    6  5  2  1
  2.054439696886e-11    6  5  2  2
 -1.117140277792e-04    6  5  3  1
  9.062194592243e-10    6  5  3  2
 -8.815799060596e-12    6  5  3  3
 -2.049837250704e-11    6  5  4  1
 -1.116607350255e-03    6  5  4  2
  3.772948205123e-05    6  5  4  3
 -1.280892356898e-11    6  5  4  4
  4.030890284056e-12    6  5  5  1
 -6.994712656218e-03    6  5  5  2
  3.537043837011e-07    6  5  5  3
  4.278459195474e-11    6  5  5  4
 -2.448104749933e-11    6  5  5  5
 -2.277688139674e-03    6  5  6  1
  6.110412366905e-11    6  5  6  2
 -5.669586744375e-10    6  5  6  3
  1.714558198498e-03    6  5  6  4
  1.503739350951e-02    6  5  6  5
  5.145469463441e-01    6  6  1  1
 -1.259798089634e-10    6  6  2  1
  5.185561249423e-01    6  6  2  2
  8.792937665517e-09    6  6  3  1
  2.636877454506e-08    6  6  3  2
  4.845960641664e-01    6  6  3  3
  2.184370215872e-02    6  6  4  1
 -1.987146168986e-10    6  6  4  2
  4.542747545206e-09    6  6  4  3
  2.599207509530e-01    6  6  4  4
  3.366240631371e-03    6  6  5  1
 -3.789128519839e-12    6  6  5  2
  8.403073889622e-10    6  6  5  3
  4.348998975608e-03    6  6  5  4
  4.628440465070e-01    6  6  5  5
  1.031359751746e-09    6  6  6  1
  7.162684058025e-02    6  6  6  2
  5.528614889266e-06    6  6  6  3
  2.497879400154e-10    6  6  6  4
  4.813196351955e-11    6  6  6  5
  5.278726983587e-01    6  6  6  6
  3.159111591594e-08    7  1  1  1
 -1.166226564755e-06    7  1  2  1
  2.860270645520e-08    7  1  2  2
 -1.023874169326e-02    7  1  3  1
 -2.147899717978e-11    7  1  3  2
  2.952010456688e-08    7  1  3  3
  1.001178929211e-09    7  1  4  1
 -6.532483714726e-08    7  1  4  2
 -4.826577564287e-04    7  1  4  3
  5.460931475137e-10    7  1  4  4
 -6.178845123373e-11    7  1  5  1
  6.097348818429e-05    7  1  5  2
  1.788615232634e-03    7  1  5  3
  5.384824121314e-10    7  1  5  4
  1.575200056749e-09    7  1  5  5
  1.902345670572e-08    7  1  6  2
 -1.218252791310e-10    7  1  6  3
  3.368970041033e-08    7  1  6  4
 -7.767033832844e-05    7  1  6  5
  2.006659255628e-08    7  1  6  6
  1.361529011897e-02    7  1  7  1
  5.669755987670e-08    7  2  1  1
  1.507749915004e-09    7  2  2  1
 -2.811964092451e-06    7  2  2  2
 -1.267869242687e-11    7  2  3  1
 -1.168120417912e-02    7  2  3  2
  1.831630559605e-06    7  2  3  3
  1.159458781317e-07    7  2  4  1
 -6.541355338666e-11    7  2  4  2
  5.157869007566e-12    7  2  4  3
  9.218000781855e-07    7  2  4  4
 -4.797302812594e-05    7  2  5  1
  2.297638713020e-10    7  2  5  2
 -4.816186611748e-11    7  2  5  3
 -7.459852391206e-05    7  2  5  4
  3.722654020932e-06    7  2  5  5
  2.584205686490e-09    7  2  6  1
  1.352488812642e-06    7  2  6  2
 -1.288379683972e-02    7  2  6  3
 -1.573097101986e-10    7  2  6  4
  4.177097789107e-11    7  2  6  5
 -1.183033367324e-06    7  2  6  6
 -6.608825483285e-12    7  2  7  1
  1.288380862709e-02    7  2  7  2
 -1.366503144434e-01    7  3  1  1
 -2.420818350933e-10    7  3  2  1
 -1.567143327340e-01    7  3  2  2
  7.149886766663e-09    7  3  3  1
 -5.432698711280e-07    7  3  3  2
 -1.800228003197e-01    7  3  3  3
  4.617991433066e-04    7  3  4  1
 -2.428180120986e-11    7  3  4  2
  1.973815065756e-10    7  3  4  3
  2.982991915880e-02    7  3  4  4
 -1.404815582117e-03    7  3  5  1
 -4.882795949145e-11    7  3  5  2
  4.024878964184e-10    7  3  5  3
 -2.192555131076e-03    7  3  5  4
  7.533034239012e-02    7  3  5  5
 -8.975663419442e-10    7  3  6  1
 -1.274674568628e-01    7  3  6  2
 -1.352488772350e-06    7  3  6  3
  4.307326004579e-11    7  3  6  4
 -9.543027901937e-11    7  3  6  5
 -6.393284206409e-02    7  3  6  6
 -2.150763073941e-08    7  3  7  1
  5.864655909338e-07    7  3  7  2
  1.532974879896e-01    7  3  7  3
  6.001659413922e-09    7  4  1  1
  2.818584145757e-07    7  4  2  1
  3.860003612952e-09    7  4  2  2
 -2.151553994178e-03    7  4  3  1
  3.273872418918e-11    7  4  3  2
  2.462498385537e-09    7  4  3  3
  2.467195803371e-10    7  4  4  1
  9.430281780272e-08    7  4  4  2
  2.668268366449e-03    7  4  4  3
  1.390962461631e-09    7  4  4  4
  2.609827470407e-10    7  4  5  1
 -2.478503381082e-05    7  4  5  2
 -7.344774155077e-04    7  4  5  3
  3.441824154801e-11    7  4  5  4
  7.350382966100e-09    7  4  5  5
 -3.368969817822e-08    7  4  6  1
 -1.035666484830e-09    7  4  6  2
  7.065573010588e-12    7  4  6  3
  5.778290431473e-05    7  4  6  5
  5.904322319574e-09    7  4  6  6
 -7.789679642694e-05    7  4  7  1
  1.289984110980e-09    7  4  7  3
  5.478628005799e-03    7  4  7  4
 -1.180034800217e-09    7  5  1  1
  1.117140277778e-04    7  5  2  1
  8.715619762924e-10    7  5  2  2
  3.308607082186e-03    7  5  3  1
 -3.444845187458e-11    7  5  3  2
  2.065591558353e-09    7  5  3  3
  2.910153185382e-10    7  5  4  1
 -3.772948205030e-05    7  5  4  2
 -1.116607350254e-03    7  5  4  3
 -1.812025464731e-11    7  5  4  4
  6.805875563626e-11    7  5  5  1
  3.537043769567e-07    7  5  5  2
  6.994712656205e-03    7  5  5  3
  8.535704544216e-10    7  5  5  4
  6.303295017621e-12    7  5  5  5
 -7.767033832926e-05    7  5  6  1
 -2.313827083606e-10    7  5  6  2
 -5.598581688451e-12    7  5  6  3
  5.778290431564e-05    7  5  6  4
  1.440274504048e-09    7  5  6  6
  2.277688139678e-03    7  5  7  1
 -4.378325365908e-11    7  5  7  2
 -2.519113409033e-10    7  5  7  3
 -1.714558198503e-03    7  5  7  4
  1.503739350950e-02    7  5  7  5
  3.066882436759e-09    7  6  2  1
  3.245987836928e-06    7  6  2  2
 -1.454024541203e-10    7  6  3  1
 -1.692786752127e-02    7  6  3  2
 -3.245987786163e-06    7  6  3  3
 -5.426118873835e-11    7  6  4  2
  2.351412642905e-12    7  6  4  3
  1.150899795218e-04    7  6  5  1
  2.024273901860e-10    7  6  5  2
  2.637004369092e-11    7  6  5  3
  1.476083118760e-04    7  6  5  4
  1.139914075128e-09    7  6  6  1
 -1.855483920720e-06    7  6  6  2
 -3.927519006758e-03    7  6  6  3
 -9.851914864859e-11    7  6  6  4
 -4.362773690203e-10    7  6  6  5
  5.722161043258e-06    7  6  6  6
  5.176437024981e-11    7  6  7  1
  3.927519006735e-03    7  6  7  2
 -1.855483938910e-06    7  6  7  3
 -3.963491666297e-12    7  6  7  4
  4.622460639068e-11    7  6  7  5
  1.792997826891e-02    7  6  7  6
  5.145469463440e-01    7  7  1  1
 -4.124310540423e-10    7  7  2  1
  4.845960641662e-01    7  7  2  2
  2.549892703829e-09    7  7  3  1
 -2.636873838923e-08    7  7  3  2
  5.185561249423e-01    7  7  3  3
  2.184370215871e-02    7  7  4  1
 -1.970825140373e-10    7  7  4  2
  4.687994008507e-09    7  7  4  3
  2.599207509529e-01    7  7  4  4
 -3.366240631369e-03    7  7  5  1
  6.011337726703e-11    7  7  5  2
 -6.291709224512e-10    7  7  5  3
 -4.348998975615e-03    7  7  5  4
  4.628440465068e-01    7  7  5  5
  9.306489967084e-10    7  7  6  1
  6.393284206400e-02    7  7  6  2
 -1.183033347118e-06    7  7  6  3
  2.674085925300e-10    7  7  6  4
 -4.801802721460e-11    7  7  6  5
  4.916481355500e-01    7  7  6  6
  2.228867247406e-08    7  7  7  1
  5.528614844854e-06    7  7  7  2
 -7.162684058027e-02    7  7  7  3
  5.822434449494e-09    7  7  7  4
  5.051892194185e-11    7  7  7  5
 -5.722160976195e-06    7  7  7  6
  5.278726983584e-01    7  7  7  7
  1.286277445079e-01    8  1  1  1
  3.319247602737e-10    8  1  2  1
  1.367725884761e-01    8  1  2  2
 -7.380826932933e-09    8  1  3  1
  1.367725884763e-01    8  1  3  3
 -3.409070776871e-03    8  1  4  1
  5.734564452893e-11    8  1  4  2
 -1.084375955877e-09    8  1  4  3
 -4.844354161397e-02    8  1  4  4
  7.637765744888e-11    8  1  5  2
 -5.598932426937e-10    8  1  5  3
 -1.220954151901e-01    8  1  5  5
  7.818151409052e-10    8  1  6  1
  1.222507314373e-01    8  1  6  2
 -1.488807609118e-06    8  1  6  3
 -6.305780327412e-11    8  1  6  4
  1.883286363645e-11    8  1  6  5
  2.226182623511e-02    8  1  6  6
  1.636702791664e-08    8  1  7  1
 -1.488807554718e-06    8  1  7  2
 -1.222507314371e-01    8  1  7  3
 -1.506902179674e-09    8  1  7  4
  5.539554558769e-10    8  1  7  5
  2.226182623513e-02    8  1  7  7
  1.546703310928e-01    8  1  8  1
 -5.133453365066e-10    8  2  1  1
  1.358379987593e-02    8  2  2  1
 -1.005164759176e-09    8  2  2  2
 -9.732417900005e-07    8  2  3  1
  2.344201163199e-09    8  2  3  2
 -7.866922480973e-10    8  2  3  3
  2.680624458013e-11    8  2  4  1
  3.282401917924e-04    8  2  4  2
  1.968705733152e-07    8  2  4  3
  3.329539802522e-10    8  2  4  4
 -4.370008760411e-11    8  2  5  1
 -1.430444677004e-03    8  2  5  2
  4.738337449864e-05    8  2  5  3
 -2.169402715563e-11    8  2  5  4
  8.063394152200e-10    8  2  5  5
  8.239553037184e-03    8  2  6  1
 -7.530438515855e-10    8  2  6  2
  7.590494108943e-10    8  2  6  3
  1.452913796949e-03    8  2  6  4
 -1.034323459466e-04    8  2  6  5
 -5.418238299696e-11    8  2  6  6
 -9.944197793408e-07    8  2  7  1
 -1.426238785600e-10    8  2  7  2
  7.127329907546e-10    8  2  7  3
  2.422174440479e-07    8  2  7  4
 -4.427785984536e-06    8  2  7  5
 -4.128923796756e-11    8  2  7  6
 -4.889240888039e-11    8  2  7  7
 -8.658008463362e-10    8  2  8  1
  1.315417454835e-02    8  2  8  2
  1.080196581249e-08    8  3  1  1
  9.732417981667e-07    8  3  2  1
  1.669079910091e-08    8  3  2  2
  1.358379987594e-02    8  3  3  1
 -1.081113275043e-10    8  3  3  2
  2.139951547907e-08    8  3  3  3
 -5.580637968483e-10    8  3  4  1
 -1.968705727330e-07    8  3  4  2
  3.282401917934e-04    8  3  4  3
 -7.126940671114e-09    8  3  4  4
 -6.233605019103e-10    8  3  5  1
  4.738337449818e-05    8  3  5  2
  1.430444677006e-03    8  3  5  3
 -2.907107289481e-10    8  3  5  4
 -1.730910375560e-08    8  3  5  5
 -9.944197836579e-07    8  3  6  1
  1.511364797382e-08    8  3  6  2
 -8.519082674432e-12    8  3  6  3
  2.422174443186e-07    8  3  6  4
  4.427785985070e-06    8  3  6  5
  9.485351124236e-10    8  3  6  6
 -8.239553037173e-03    8  3  7  1
  3.557175991659e-11    8  3  7  2
 -1.601270789737e-08    8  3  7  3
 -1.452913796950e-03    8  3  7  4
 -1.034323459404e-04    8  3  7  5
  1.080427066518e-09    8  3  7  7
  1.844457505259e-08    8  3  8  1
  1.315417454835e-02    8  3  8  3
 -2.820337303317e-02    8  4  1  1
  1.013739011157e-10    8  4  2  1
 -2.092760171650e-02    8  4  2  2
 -2.192429824431e-09    8  4  3  1
 -2.092760171648e-02    8  4  3  3
 -6.995038234748e-03    8  4  4  1
  5.693650076681e-11    8  4  4  2
 -1.260317760216e-09    8  4  4  3
 -7.327493260108e-03    8  4  4  4
  8.737326803351e-12    8  4  5  2
 -8.708143339965e-11    8  4  5  3
 -5.364095734842e-02    8  4  5  5
  6.217347425440e-12    8  4  6  1
  1.111387678917e-02    8  4  6  2
 -4.757050669295e-07    8  4  6  3
 -5.141914710963e-11    8  4  6  4
  8.609943807112e-12    8  4  6  5
 -3.793742533254e-02    8  4  6  6
  5.805638558720e-11    8  4  7  1
 -4.757050564041e-07    8  4  7  2
 -1.111387678914e-02    8  4  7  3
 -1.193301413343e-09    8  4  7  4
 -1.033492199183e-10    8  4  7  5
 -3.793742533252e-02    8  4  7  7
  1.755284673258e-02    8  4  8  1
 -1.119245776828e-10    8  4  8  2
  2.396401922610e-09    8  4  8  3
  1.535758710390e-02    8  4  8  4
 -2.365881519995e-03    8  5  2  2
 -1.381011755087e-10    8  5  3  1
  7.989414108195e-05    8  5  3  2
  2.365881519990e-03    8  5  3  3
 -1.501257668035e-11    8  5  4  2
 -1.920236206784e-10    8  5  4  3
 -1.223987028608e-02    8  5  5  1
  9.255567683175e-11    8  5  5  2
 -1.951781119675e-09    8  5  5  3
 -6.116343283704e-03    8  5  5  4
  4.203966275375e-11    8  5  6  1
  3.016331765889e-03    8  5  6  2
 -1.029237041015e-04    8  5  6  3
  2.943547662918e-11    8  5  6  4
 -4.480364544195e-11    8  5  6  5
 -6.739544597094e-03    8  5  6  6
 -3.923404073872e-10    8  5  7  1
  1.029237040982e-04    8  5  7  2
  3.016331765883e-03    8  5  7  3
 -2.872657779689e-10    8  5  7  4
 -8.868229850570e-10    8  5  7  5
 -2.293749835153e-04    8  5  7  6
  6.739544597088e-03    8  5  7  7
  3.448942054157e-11    8  5  8  2
  4.500230037830e-10    8  5  8  3
  2.251970455699e-02    8  5  8  5
  3.523238179229e-10    8  6  1  1
  1.309496633951e-02    8  6  2  1
  1.160368641755e-10    8  6  2  2
  3.304615966158e-07    8  6  3  1
  1.581228263461e-09    8  6  3  2
  2.607161124057e-10    8  6  3  3
 -3.236016385242e-11    8  6  4  1
  4.899694864857e-04    8  6  4  2
  4.049457155095e-08    8  6  4  3
 -1.554548528104e-10    8  6  4  4
  3.534154366291e-11    8  6  5  1
 -9.685622633955e-04    8  6  5  2
  3.322486264499e-05    8  6  5  3
  4.992433642733e-11    8  6  5  4
 -4.633937087854e-10    8  6  5  5
  2.291239039050e-03    8  6  6  1
  3.271155130179e-10    8  6  6  2
  6.272139711970e-10    8  6  6  3
  2.572044931328e-04    8  6  6  4
  3.373649235655e-03    8  6  6  5
 -5.583304531859e-11    8  6  6  6
 -2.256987469321e-07    8  6  7  1
 -9.149598197162e-11    8  6  7  2
 -3.654897951105e-10    8  6  7  3
  1.219668920539e-07    8  6  7  4
  1.153965449021e-04    8  6  7  5
  5.141250967940e-10    8  6  7  6
 -1.150098216968e-10    8  6  7  7
  4.979156845128e-10    8  6  8  1
  3.157989209690e-03    8  6  8  2
  3.092267342587e-07    8  6  8  3
  9.809322529134e-11    8  6  8  4
 -4.913172442988e-11    8  6  8  5
  1.433569404041e-02    8  6  8  6
  7.583321248773e-09    8  7  1  1
  3.304616014506e-07    8  7  2  1
  5.762970121302e-09    8  7  2  2
 -1.309496633950e-02    8  7  3  1
  7.509644317533e-11    8  7  3  2
  2.608266252463e-09    8  7  3  3
 -7.140736115919e-10    8  7  4  1
  4.049457157872e-08    8  7  4  2
 -4.899694864860e-04    8  7  4  3
 -3.407968615370e-09    8  7  4  4
 -3.094630961995e-10    8  7  5  1
 -3.322486264488e-05    8  7  5  2
 -9.685622633891e-04    8  7  5  3
 -5.669862589482e-10    8  7  5  4
 -1.035331618035e-08    8  7  5  5
  2.256987509760e-07    8  7  6  1
  7.876146400718e-09    8  7  6  2
  3.867693853573e-12    8  7  6  3
 -1.219668924763e-07    8  7  6  4
  1.153965449030e-04    8  7  6  5
 -2.330518841097e-09    8  7  6  6
  2.291239039043e-03    8  7  7  1
 -2.823122928348e-11    8  7  7  2
 -7.129226069469e-09    8  7  7  3
  2.572044931331e-04    8  7  7  4
 -3.373649235650e-03    8  7  7  5
  2.486976460605e-11    8  7  7  6
 -1.202146200858e-09    8  7  7  7
  1.084283171928e-08    8  7  8  1
  3.092267309844e-07    8  7  8  2
 -3.157989209694e-03    8  7  8  3
  2.131253155757e-09    8  7  8  4
  5.780524994677e-10    8  7  8  5
  1.433569404040e-02    8  7  8  7
  5.126241515306e-01    8  8  1  1
 -7.904411775269e-10    8  8  2  1
  4.379328096020e-01    8  8  2  2
  1.704965389716e-08    8  8  3  1
  4.379328096020e-01    8  8  3  3
  2.883230635002e-02    8  8  4  1
 -2.715266224840e-10    8  8  4  2
  6.075644195914e-09    8  8  4  3
  2.942458590428e-01    8  8  4  4
 -7.323664482696e-11    8  8  5  2
 -1.120157297183e-10    8  8  5  3
  5.603264206702e-01    8  8  5  5
  6.453062379535e-10    8  8  6  1
 -2.531126758167e-03    8  8  6  2
  3.190635784625e-06    8  8  6  3
  3.578618267101e-10    8  8  6  4
  1.212281923066e-10    8  8  6  5
  5.149452371413e-01    8  8  6  6
  1.430874236100e-08    8  8  7  1
  3.190635711877e-06    8  8  7  2
  2.531126758029e-03    8  8  7  3
  8.033010827218e-09    8  8  7  4
 -9.349551518656e-10    8  8  7  5
  5.149452371411e-01    8  8  7  7
 -5.805732956212e-02    8  8  8  1
  4.833246641022e-10    8  8  8  2
 -1.045332525150e-08    8  8  8  3
 -5.529693870136e-02    8  8  8  4
 -4.241351777120e-10    8  8  8  6
 -9.295715604007e-09    8  8  8  7
  6.311820477601e-01    8  8  8  8
  1.258142592007e-01    9  1  1  1
 -1.812226491147e-10    9  1  2  1
  1.131321300447e-01    9  1  2  2
  3.825678266281e-09    9  1  3  1
  1.131321300448e-01    9  1  3  3
  5.600194790271e-03    9  1  4  1
 -2.107793051406e-11    9  1  4  2
  5.410543205528e-10    9  1  4  3
  8.859739602328e-03    9  1  4  4
  4.987800655338e-11    9  1  5  2
 -1.931673558258e-11    9  1  5  3
  1.572715480422e-02    9  1  5  5
  9.083229141688e-10    9  1  6  1
  8.306810892782e-02    9  1  6  2
  1.798294840662e-06    9  1  6  3
 -2.023340641737e-11    9  1  6  4
 -2.352074390375e-11    9  1  6  5
  8.791324659685e-02    9  1  6  6
  1.949118135727e-08    9  1  7  1
  1.798294832920e-06    9  1  7  2
 -8.306810892783e-02    9  1  7  3
 -5.353247148147e-10    9  1  7  4
  8.841239758073e-10    9  1  7  5
  8.791324659679e-02    9  1  7  7
  6.812829998671e-02    9  1  8  1
 -3.765985705137e-10    9  1  8  2
  7.943127497284e-09    9  1  8  3
  1.387415474352e-03    9  1  8  4
  2.208940477535e-10    9  1  8  6
  4.760029248700e-09    9  1  8  7
  6.682889595649e-02    9  1  8  8
  1.165057238085e-01    9  1  9  1
 -9.568345495015e-10    9  2  1  1
  3.246653766547e-03    9  2  2  1
 -1.098650861284e-09    9  2  2  2
 -5.507887871156e-07    9  2  3  1
  1.058221173136e-09    9  2  3  2
 -1.006482664627e-09    9  2  3  3
  8.293965931881e-12    9  2  4  1
  1.270962884522e-03    9  2  4  2
 -6.062534971984e-08    9  2  4  3
  1.894147275103e-10    9  2  4  4
  6.143844952175e-11    9  2  5  1
  1.502829550672e-03    9  2  5  2
 -5.062291188286e-05    9  2  5  3
  8.336801595346e-12    9  2  5  4
  5.804914622477e-10    9  2  5  5
  1.003357974642e-02    9  2  6  1
 -9.105429126425e-10    9  2  6  2
  1.861180207232e-09    9  2  6  3
 -1.379096025331e-03    9  2  6  4
 -2.353868957483e-03    9  2  6  5
 -2.724126643063e-10    9  2  6  6
  9.317303092680e-07    9  2  7  1
  7.086767667188e-10    9  2  7  2
  8.538474925260e-10    9  2  7  3
 -5.993558718176e-08    9  2  7  4
 -7.923003096345e-05    9  2  7  5
  7.896083116727e-10    9  2  7  6
 -3.552171793586e-10    9  2  7  7
 -8.853869960080e-10    9  2  8  1
  4.082143530658e-03    9  2  8  2
 -7.212410066069e-07    9  2  8  3
 -1.011555101383e-10    9  2  8  4
 -6.716580584108e-11    9  2  8  5
  3.997336281375e-03    9  2  8  6
 -1.097421930098e-07    9  2  8  7
  6.226618992280e-11    9  2  8  8
 -5.793275197924e-10    9  2  9  1
  1.605221178236e-02    9  2  9  2
  2.059451365449e-08    9  3  1  1
  5.507887947335e-07    9  3  2  1
  2.171329325356e-08    9  3  2  2
  3.246653766560e-03    9  3  3  1
 -4.848469656751e-11    9  3  3  2
  2.377818576216e-08    9  3  3  3
 -1.810745729982e-10    9  3  4  1
  6.062534881588e-08    9  3  4  2
  1.270962884520e-03    9  3  4  3
 -4.160604907711e-09    9  3  4  4
  7.021347292476e-10    9  3  5  1
 -5.062291188261e-05    9  3  5  2
 -1.502829550669e-03    9  3  5  3
  1.125658199418e-10    9  3  5  4
 -1.284601336359e-08    9  3  5  5
  9.317303139725e-07    9  3  6  1
  1.842275141193e-08    9  3  6  2
  3.510917202760e-11    9  3  6  3
 -5.993558709974e-08    9  3  6  4
  7.923003096471e-05    9  3  6  5
  7.532698341717e-09    9  3  6  6
 -1.003357974643e-02    9  3  7  1
  8.625702621367e-11    9  3  7  2
 -1.959004825570e-08    9  3  7  3
  1.379096025331e-03    9  3  7  4
 -2.353868957483e-03    9  3  7  5
 -3.442756878112e-11    9  3  7  6
  5.923887934212e-09    9  3  7  7
  1.915558885112e-08    9  3  8  1
  7.212410100272e-07    9  3  8  2
  4.082143530667e-03    9  3  8  3
  2.219280985823e-09    9  3  8  4
 -8.680236223880e-10    9  3  8  5
 -1.097421913082e-07    9  3  8  6
 -3.997336281376e-03    9  3  8  7
 -1.513816918846e-09    9  3  8  8
  1.234669939559e-08    9  3  9  1
  1.605221178237e-02    9  3  9  3
  2.906039234386e-02    9  4  1  1
 -3.906642462723e-11    9  4  2  1
  2.565802559855e-02    9  4  2  2
  8.440660583348e-10    9  4  3  1
  2.565802559855e-02    9  4  3  3
  2.657874861837e-03    9  4  4  1
 -1.026542317523e-11    9  4  4  2
  2.490608125672e-10    9  4  4  3
  4.951965463855e-03    9  4  4  4
 -1.006300209506e-11    9  4  5  2
 -1.151648427667e-10    9  4  5  3
  2.526159917932e-02    9  4  5  5
  3.968489106323e-11    9  4  6  1
  2.495364774706e-03    9  4  6  2
  1.000592922862e-07    9  4  6  3
  1.409323106633e-11    9  4  6  5
  2.735424194448e-02    9  4  6  6
  8.462305521385e-10    9  4  7  1
  1.000592896031e-07    9  4  7  2
 -2.495364774711e-03    9  4  7  3
  3.024622368501e-11    9  4  7  4
 -1.104295467362e-10    9  4  7  5
  2.735424194447e-02    9  4  7  7
  1.044965480015e-03    9  4  8  1
 -5.418379945136e-12    9  4  8  2
  1.249403720582e-10    9  4  8  3
 -4.996470037635e-03    9  4  8  4
 -8.041764503095e-12    9  4  8  6
 -1.763561597293e-10    9  4  8  7
  3.152548713581e-02    9  4  8  8
  5.296286822196e-03    9  4  9  1
 -1.725826527243e-11    9  4  9  2
  3.855443446785e-10    9  4  9  3
  3.126671228090e-03    9  4  9  4
  3.187723740457e-12    9  5  2  1
  1.534693566329e-03    9  5  2  2
 -5.318387993806e-11    9  5  3  1
 -5.108601946269e-05    9  5  3  2
 -1.534693566327e-03    9  5  3  3
  4.940716129106e-12    9  5  4  2
  7.469742697258e-11    9  5  4  3
  1.351431601555e-03    9  5  5  1
  3.651903013390e-11    9  5  5  2
 -8.815628221640e-10    9  5  5  3
  1.909675644092e-03    9  5  5  4
 -1.900943460344e-12    9  5  6  1
 -1.223451865517e-03    9  5  6  2
  4.116001821068e-05    9  5  6  3
 -6.570836611542e-12    9  5  6  4
 -1.104108461618e-10    9  5  6  5
  2.210442924220e-03    9  5  6  6
  4.124311099047e-11    9  5  7  1
 -4.116001820914e-05    9  5  7  2
 -1.223451865512e-03    9  5  7  3
  8.750891277063e-11    9  5  7  4
 -2.514646047475e-09    9  5  7  5
  7.397524130606e-05    9  5  7  6
 -2.210442924214e-03    9  5  7  7
  1.545717619788e-11    9  5  8  2
  1.180995746862e-10    9  5  8  3
 -3.793657922812e-03    9  5  8  5
 -3.419152451484e-11    9  5  8  6
  4.770418698408e-10    9  5  8  7
  2.308775790125e-11    9  5  9  2
  2.362366117489e-10    9  5  9  3
  1.413554366839e-03    9  5  9  5
  5.758460449892e-10    9  6  1  1
  1.501170324203e-02    9  6  2  1
  3.038535112111e-10    9  6  2  2
  1.223577099741e-06    9  6  3  1
  2.870014778054e-09    9  6  3  2
  5.775504877173e-10    9  6  3  3
 -9.705783030806e-11    9  6  4  1
 -9.382027450890e-04    9  6  4  2
  3.090282499895e-09    9  6  4  3
 -6.367354910375e-10    9  6  4  4
 -1.030297750183e-10    9  6  5  1
 -1.758822904635e-03    9  6  5  2
  5.930350910093e-05    9  6  5  3
 -4.255220148015e-11    9  6  5  4
 -1.683493918814e-09    9  6  5  5
  7.195327676456e-03    9  6  6  1
  9.737146985364e-10    9  6  6  2
  2.258072146695e-11    9  6  6  3
  2.305839534065e-03    9  6  6  4
  2.071806397195e-03    9  6  6  5
 -4.765061445374e-10    9  6  6  6
 -4.663025035651e-07    9  6  7  1
  1.030430301469e-09    9  6  7  2
 -9.195146133018e-10    9  6  7  3
 -7.355817649824e-08    9  6  7  4
  6.963847970073e-05    9  6  7  5
 -7.300790876905e-10    9  6  7  6
 -3.952535644603e-10    9  6  7  7
  1.232725055664e-09    9  6  8  1
  8.206386375710e-03    9  6  8  2
  9.140446226237e-07    9  6  8  3
  2.003090529672e-10    9  6  8  4
  1.383570377615e-10    9  6  8  5
  5.130527409581e-03    9  6  8  6
 -8.599827124653e-08    9  6  8  7
 -1.135160971243e-09    9  6  8  8
  3.280599598050e-10    9  6  9  1
  6.250725590532e-03    9  6  9  2
 -5.709920039213e-08    9  6  9  3
 -4.599584128367e-11    9  6  9  4
 -1.823586450292e-11    9  6  9  5
  1.390534190619e-02    9  6  9  6
  1.217179980791e-08    9  7  1  1
  1.223577092609e-06    9  7  2  1
  1.227607167529e-08    9  7  2  2
 -1.501170324204e-02    9  7  3  1
  1.333787580339e-10    9  7  3  2
  6.503809522061e-09    9  7  3  3
 -2.161470786696e-09    9  7  4  1
  3.090282331830e-09    9  7  4  2
  9.382027450883e-04    9  7  4  3
 -1.400507131834e-08    9  7  4  4
  1.324824542827e-09    9  7  5  1
 -5.930350909944e-05    9  7  5  2
 -1.758822904635e-03    9  7  5  3
  5.311785371982e-10    9  7  5  4
 -3.710223684977e-08    9  7  5  5
  4.663025092418e-07    9  7  6  1
  1.999781334938e-08    9  7  6  2
 -4.602136646108e-11    9  7  6  3
  7.355817495427e-08    9  7  6  4