#INFO: **** input file is /projects/bamu3429/BENCHMARK/fresh_atoms/MRPT/vqz/monoxides/TiO/mrpt.py ****
import json
from pyscf import gto,scf,mcscf, fci, lo, ci, cc
from pyscf.scf import ROHF, UHF,ROKS
import numpy as np
import pandas as pd

# THIS IS WERE IT STARTS ====================================

df=json.load(open("../../../trail.json"))

spins={'ScO':1, 'TiO':2, 'VO':3, 'CrO':4, 'MnO':5, 'FeO':4, 'CuO':1}

nd={'Sc':(1,0), 'Ti':(2,0), 'V':(3,0), 'Cr':(5,0), 'Mn':(5,0), 'Fe':(5,1), 'Cu':(5,4)}

cas={'Sc':3, 'Ti':4, 'V':5, 'Cr':6, 'Mn':7, 'Fe':8, 'Cu':11}

re={'ScO':1.668, 'TiO':1.623, 'VO':1.591, 'CrO':1.621, 'MnO':1.648, 'FeO':1.616, 'CuO':1.725}

datacsv={}
for nm in ['basis','charge','method','molecule','pseudopotential',
           'totalenergy','totalenergy-stocherr','totalenergy-syserr']:
  datacsv[nm]=[]

basis='vqz'
element='Ti'

mol=gto.Mole()
mol.ecp={}
mol.basis={}
for el in [element,'O']:
  mol.ecp[el]=gto.basis.parse_ecp(df[el]['ecp'])
  mol.basis[el]=gto.basis.parse(df[el][basis])
mol.charge=0
mol.spin=spins[element+'O']
mol.build(atom="%s 0. 0. 0.; O 0. 0. %g"%(element,re[element+'O']),verbose=4)

m=ROHF(mol)
m.level_shift=1000.0
dm=m.from_chk("../../../../HF/monoxides/"+element+basis+"0.chk")
hf=m.kernel(dm)
m.analyze()

from pyscf.shciscf import shci
mc = shci.SHCISCF(m, 9, 4+cas[element])
#mc.fcisolver.conv_tol = 1e-14
mc.fcisolver.mpiprefix="srun -n20"
mc.fcisolver.num_thrds=12
mc.verbose = 4
cas=mc.kernel()[0]
 
from pyscf.icmpspt import icmpspt
pt=icmpspt.icmpspt(mc,rdmM=500, PTM=1000,\
                          pttype="MRLCC",\
                          third_order=True,\
                          fully_ic=True,\
                          do_dm4=True)

datacsv['basis'].append(basis)
datacsv['charge'].append(0)
datacsv['method'].append('MRPT')
datacsv['molecule'].append(element)
datacsv['pseudopotential'].append('trail')
datacsv['totalenergy'].append(cas+pt)
datacsv['totalenergy-stocherr'].append(0.0)
datacsv['totalenergy-syserr'].append(0.0)
pd.DataFrame(datacsv).to_csv(element+".csv",index=False)

#INFO: ******************** input file end ********************


System: ('Linux', 'bnode0302.rc.int.colorado.edu', '3.10.0-514.41.1.el7.x86_64', '#1 SMP Wed Jan 17 10:26:16 EST 2018', 'x86_64', 'x86_64')  Threads 28
Python 2.7.11 (default, Mar 22 2016, 01:42:54) 
[GCC Intel(R) C++ gcc 4.8 mode]
numpy 1.11.1  scipy 0.17.1
Date: Thu Apr 19 11:48:21 2018
PySCF version 1.4.6
PySCF path  /projects/bamu3429/softwares/pyscf_uptodate/pyscf
GIT ORIG_HEAD f3591ef22170896a4cdc2aadaa6f5da388ffcadb
GIT HEAD      ref: refs/heads/master
GIT master branch  1847583fb1d2472321833d3c71c8b7008e5fabf5

[INPUT] VERBOSE 4
[INPUT] num atoms = 2
[INPUT] num electrons = 18
[INPUT] charge = 0
[INPUT] spin (= nelec alpha-beta = 2S) = 2
[INPUT] symmetry False subgroup None
[INPUT]  1 Ti     0.000000000000   0.000000000000   0.000000000000 AA    0.000000000000   0.000000000000   0.000000000000 Bohr
[INPUT]  2 O      0.000000000000   0.000000000000   1.623000000000 AA    0.000000000000   0.000000000000   3.067025500169 Bohr
[INPUT] ---------------- BASIS SET ---------------- 
[INPUT] l, kappa, [nprim/nctr], expnt,             c_1 c_2 ...
[INPUT] O
[INPUT] 0    0    [10   /1   ]  57.663349         -0.002794
                                35.726816         0.023976
                                22.453757         -0.115974
                                14.732301         0.288033
                                9.739917          -0.274786
                                5.042008          -0.083789
                                2.157818          0.063778
                                1.002916          0.410182
                                0.421839          0.504044
                                0.173041          0.172152
[INPUT] 0    0    [1    /1   ]  1.70747              1
[INPUT] 0    0    [1    /1   ]  0.617491             1
[INPUT] 0    0    [1    /1   ]  0.223309             1
[INPUT] 0    0    [1    /1   ]  0.084592             1
[INPUT] 1    0    [10   /1   ]  52.47406          -0.000522
                                32.138432         0.004857
                                19.458579         -0.027749
                                11.839344         0.074258
                                7.91003           0.014369
                                3.670858          0.153479
                                1.53966           0.283685
                                0.647119          0.358201
                                0.267853          0.29559
                                0.107198          0.104889
[INPUT] 1    0    [1    /1   ]  1.345435             1
[INPUT] 1    0    [1    /1   ]  0.458358             1
[INPUT] 1    0    [1    /1   ]  0.156151             1
[INPUT] 1    0    [1    /1   ]  0.045837             1
[INPUT] 2    0    [1    /1   ]  3.661538             1
[INPUT] 2    0    [1    /1   ]  1.279275             1
[INPUT] 2    0    [1    /1   ]  0.446952             1
[INPUT] 2    0    [1    /1   ]  0.148191             1
[INPUT] 3    0    [1    /1   ]  2.598839             1
[INPUT] 3    0    [1    /1   ]  0.849032             1
[INPUT] 3    0    [1    /1   ]  0.310222             1
[INPUT] 4    0    [1    /1   ]  1.838653             1
[INPUT] 4    0    [1    /1   ]  0.706784             1
[INPUT] Ti
[INPUT] 0    0    [12   /1   ]  37.13946663       0.002411
                                11.66061728       -0.575963
                                8.9751153         2.645948
                                7.67011905        -2.362876
                                3.44923714        -0.059842
                                1.58705441        0.244002
                                0.95387432        0.58593
                                0.47300537        0.378609
                                0.2203041         0.031099
                                0.10349534        0.004602
                                0.04822069        0.000609
                                0.0226639         0.001044
[INPUT] 0    0    [12   /1   ]  37.13946663       -0.000363
                                11.66061728       0.129591
                                8.9751153         -0.625086
                                7.67011905        0.572499
                                3.44923714        0.016652
                                1.58705441        -0.073052
                                0.95387432        -0.203234
                                0.47300537        -0.251131
                                0.2203041         -0.044619
                                0.10349534        0.38905
                                0.04822069        0.591401
                                0.0226639         0.208165
[INPUT] 0    0    [12   /1   ]  37.13946663       -0.001115
                                11.66061728       0.51967
                                8.9751153         -2.657294
                                7.67011905        2.533238
                                3.44923714        0.024774
                                1.58705441        -1.195577
                                0.95387432        -0.355978
                                0.47300537        0.518177
                                0.2203041         0.914245
                                0.10349534        0.348281
                                0.04822069        -0.566441
                                0.0226639         -0.389331
[INPUT] 0    0    [12   /1   ]  37.13946663       -0.002329
                                11.66061728       0.799099
                                8.9751153         -4.200932
                                7.67011905        4.132106
                                3.44923714        -0.32722
                                1.58705441        -2.567932
                                0.95387432        1.125856
                                0.47300537        2.155366
                                0.2203041         -0.743551
                                0.10349534        -1.579371
                                0.04822069        0.515995
                                0.0226639         0.699247
[INPUT] 0    0    [12   /1   ]  37.13946663       0.006064
                                11.66061728       -1.642157
                                8.9751153         9.19655
                                7.67011905        -9.630064
                                3.44923714        3.376611
                                1.58705441        2.286739
                                0.95387432        -6.165423
                                0.47300537        2.656283
                                0.2203041         1.918514
                                0.10349534        -2.202132
                                0.04822069        -0.293714
                                0.0226639         0.961713
[INPUT] 0    0    [1    /1   ]  0.0226639            1
[INPUT] 0    0    [1    /1   ]  0.01065211           1
[INPUT] 1    0    [12   /1   ]  44.38520603       0.000557
                                23.85822456       -0.004857
                                12.73507149       0.027448
                                6.00842867        -0.150306
                                3.96301478        0.092203
                                2.13751474        0.210744
                                1.20712576        0.397756
                                0.62000194        0.354359
                                0.30900057        0.130823
                                0.12918293        0.012952
                                0.05400711        -0.000125
                                0.02257859        0.000245
[INPUT] 1    0    [12   /1   ]  44.38520603       -7.7e-05
                                23.85822456       0.000906
                                12.73507149       -0.006126
                                6.00842867        0.038285
                                3.96301478        -0.027356
                                2.13751474        -0.059665
                                1.20712576        -0.115513
                                0.62000194        -0.130421
                                0.30900057        0.025358
                                0.12918293        0.394962
                                0.05400711        0.54831
                                0.02257859        0.169017
[INPUT] 1    0    [12   /1   ]  44.38520603       0.000289
                                23.85822456       -0.004068
                                12.73507149       0.031182
                                6.00842867        -0.242448
                                3.96301478        0.198909
                                2.13751474        0.720192
                                1.20712576        0.162963
                                0.62000194        -0.788053
                                0.30900057        -0.456042
                                0.12918293        0.594094
                                0.05400711        0.321239
                                0.02257859        -0.002282
[INPUT] 1    0    [12   /1   ]  44.38520603       0.000322
                                23.85822456       -0.006293
                                12.73507149       0.061433
                                6.00842867        -0.709428
                                3.96301478        1.230546
                                2.13751474        1.099591
                                1.20712576        -1.80149
                                0.62000194        -0.680724
                                0.30900057        1.665036
                                0.12918293        -0.194409
                                0.05400711        -0.605253
                                0.02257859        0.020232
[INPUT] 1    0    [12   /1   ]  44.38520603       -0.006431
                                23.85822456       0.02841
                                12.73507149       -0.038493
                                6.00842867        -0.726428
                                3.96301478        2.460211
                                2.13751474        -1.502353
                                1.20712576        -1.404761
                                0.62000194        2.497509
                                0.30900057        -1.029217
                                0.12918293        -0.611426
                                0.05400711        0.750291
                                0.02257859        -0.038783
[INPUT] 1    0    [1    /1   ]  0.02257859           1
[INPUT] 1    0    [1    /1   ]  0.00943936           1
[INPUT] 2    0    [10   /1   ]  29.31465998       -0.000519
                                13.63067536       -0.007186
                                8.04907964        0.095441
                                3.25682476        0.170565
                                1.474054          0.27882
                                0.66141289        0.324798
                                0.29673638        0.280135
                                0.13456087        0.172066
                                0.06095666        0.058237
                                0.02784531        0.004588
[INPUT] 2    0    [10   /1   ]  29.31465998       0.00281
                                13.63067536       -0.006479
                                8.04907964        -0.060988
                                3.25682476        -0.258291
                                1.474054          -0.49009
                                0.66141289        0.014554
                                0.29673638        0.352182
                                0.13456087        0.382358
                                0.06095666        0.172767
                                0.02784531        0.017366
[INPUT] 2    0    [10   /1   ]  29.31465998       0.007744
                                13.63067536       -0.037639
                                8.04907964        0.009879
                                3.25682476        -0.574581
                                1.474054          -0.215187
                                0.66141289        0.874455
                                0.29673638        0.174962
                                0.13456087        -0.439503
                                0.06095666        -0.344031
                                0.02784531        -0.031851
[INPUT] 2    0    [10   /1   ]  29.31465998       -0.001945
                                13.63067536       0.029001
                                8.04907964        -0.27627
                                3.25682476        -0.946826
                                1.474054          1.28698
                                0.66141289        0.065529
                                0.29673638        -0.957094
                                0.13456087        0.325461
                                0.06095666        0.369531
                                0.02784531        0.058554
[INPUT] 2    0    [1    /1   ]  0.02784531           1
[INPUT] 2    0    [1    /1   ]  0.01271987           1
[INPUT] 3    0    [1    /1   ]  2.750207             1
[INPUT] 3    0    [1    /1   ]  0.966241             1
[INPUT] 3    0    [1    /1   ]  0.339471             1
[INPUT] 3    0    [1    /1   ]  0.11926688           1
[INPUT] 4    0    [1    /1   ]  2.807857             1
[INPUT] 4    0    [1    /1   ]  1.018064             1
[INPUT] 4    0    [1    /1   ]  0.36912644           1
[INPUT] 5    0    [1    /1   ]  2.388057             1
[INPUT] 5    0    [1    /1   ]  0.8658542            1
nuclear repulsion = 23.4755139779667
number of shells = 48
number of NR pGTOs = 650
number of NR cGTOs = 214
basis = {'O': [[0, [57.663349, -0.002794], [35.726816, 0.023976], [22.453757, -0.115974], [14.732301, 0.288033], [9.739917, -0.274786], [5.042008, -0.083789], [2.157818, 0.063778], [1.002916, 0.410182], [0.421839, 0.504044], [0.173041, 0.172152]], [0, [1.70747, 1.0]], [0, [0.617491, 1.0]], [0, [0.223309, 1.0]], [0, [0.084592, 1.0]], [1, [52.47406, -0.000522], [32.138432, 0.004857], [19.458579, -0.027749], [11.839344, 0.074258], [7.91003, 0.014369], [3.670858, 0.153479], [1.53966, 0.283685], [0.647119, 0.358201], [0.267853, 0.29559], [0.107198, 0.104889]], [1, [1.345435, 1.0]], [1, [0.458358, 1.0]], [1, [0.156151, 1.0]], [1, [0.045837, 1.0]], [2, [3.661538, 1.0]], [2, [1.279275, 1.0]], [2, [0.446952, 1.0]], [2, [0.148191, 1.0]], [3, [2.598839, 1.0]], [3, [0.849032, 1.0]], [3, [0.310222, 1.0]], [4, [1.838653, 1.0]], [4, [0.706784, 1.0]]], 'Ti': [[0, [37.13946663, 0.002411], [11.66061728, -0.575963], [8.9751153, 2.645948], [7.67011905, -2.362876], [3.44923714, -0.059842], [1.58705441, 0.244002], [0.95387432, 0.58593], [0.47300537, 0.378609], [0.2203041, 0.031099], [0.10349534, 0.004602], [0.04822069, 0.000609], [0.0226639, 0.001044]], [0, [37.13946663, -0.000363], [11.66061728, 0.129591], [8.9751153, -0.625086], [7.67011905, 0.572499], [3.44923714, 0.016652], [1.58705441, -0.073052], [0.95387432, -0.203234], [0.47300537, -0.251131], [0.2203041, -0.044619], [0.10349534, 0.38905], [0.04822069, 0.591401], [0.0226639, 0.208165]], [0, [37.13946663, -0.001115], [11.66061728, 0.51967], [8.9751153, -2.657294], [7.67011905, 2.533238], [3.44923714, 0.024774], [1.58705441, -1.195577], [0.95387432, -0.355978], [0.47300537, 0.518177], [0.2203041, 0.914245], [0.10349534, 0.348281], [0.04822069, -0.566441], [0.0226639, -0.389331]], [0, [37.13946663, -0.002329], [11.66061728, 0.799099], [8.9751153, -4.200932], [7.67011905, 4.132106], [3.44923714, -0.32722], [1.58705441, -2.567932], [0.95387432, 1.125856], [0.47300537, 2.155366], [0.2203041, -0.743551], [0.10349534, -1.579371], [0.04822069, 0.515995], [0.0226639, 0.699247]], [0, [37.13946663, 0.006064], [11.66061728, -1.642157], [8.9751153, 9.19655], [7.67011905, -9.630064], [3.44923714, 3.376611], [1.58705441, 2.286739], [0.95387432, -6.165423], [0.47300537, 2.656283], [0.2203041, 1.918514], [0.10349534, -2.202132], [0.04822069, -0.293714], [0.0226639, 0.961713]], [0, [0.0226639, 1.0]], [0, [0.01065211, 1.0]], [1, [44.38520603, 0.000557], [23.85822456, -0.004857], [12.73507149, 0.027448], [6.00842867, -0.150306], [3.96301478, 0.092203], [2.13751474, 0.210744], [1.20712576, 0.397756], [0.62000194, 0.354359], [0.30900057, 0.130823], [0.12918293, 0.012952], [0.05400711, -0.000125], [0.02257859, 0.000245]], [1, [44.38520603, -7.7e-05], [23.85822456, 0.000906], [12.73507149, -0.006126], [6.00842867, 0.038285], [3.96301478, -0.027356], [2.13751474, -0.059665], [1.20712576, -0.115513], [0.62000194, -0.130421], [0.30900057, 0.025358], [0.12918293, 0.394962], [0.05400711, 0.54831], [0.02257859, 0.169017]], [1, [44.38520603, 0.000289], [23.85822456, -0.004068], [12.73507149, 0.031182], [6.00842867, -0.242448], [3.96301478, 0.198909], [2.13751474, 0.720192], [1.20712576, 0.162963], [0.62000194, -0.788053], [0.30900057, -0.456042], [0.12918293, 0.594094], [0.05400711, 0.321239], [0.02257859, -0.002282]], [1, [44.38520603, 0.000322], [23.85822456, -0.006293], [12.73507149, 0.061433], [6.00842867, -0.709428], [3.96301478, 1.230546], [2.13751474, 1.099591], [1.20712576, -1.80149], [0.62000194, -0.680724], [0.30900057, 1.665036], [0.12918293, -0.194409], [0.05400711, -0.605253], [0.02257859, 0.020232]], [1, [44.38520603, -0.006431], [23.85822456, 0.02841], [12.73507149, -0.038493], [6.00842867, -0.726428], [3.96301478, 2.460211], [2.13751474, -1.502353], [1.20712576, -1.404761], [0.62000194, 2.497509], [0.30900057, -1.029217], [0.12918293, -0.611426], [0.05400711, 0.750291], [0.02257859, -0.038783]], [1, [0.02257859, 1.0]], [1, [0.00943936, 1.0]], [2, [29.31465998, -0.000519], [13.63067536, -0.007186], [8.04907964, 0.095441], [3.25682476, 0.170565], [1.474054, 0.27882], [0.66141289, 0.324798], [0.29673638, 0.280135], [0.13456087, 0.172066], [0.06095666, 0.058237], [0.02784531, 0.004588]], [2, [29.31465998, 0.00281], [13.63067536, -0.006479], [8.04907964, -0.060988], [3.25682476, -0.258291], [1.474054, -0.49009], [0.66141289, 0.014554], [0.29673638, 0.352182], [0.13456087, 0.382358], [0.06095666, 0.172767], [0.02784531, 0.017366]], [2, [29.31465998, 0.007744], [13.63067536, -0.037639], [8.04907964, 0.009879], [3.25682476, -0.574581], [1.474054, -0.215187], [0.66141289, 0.874455], [0.29673638, 0.174962], [0.13456087, -0.439503], [0.06095666, -0.344031], [0.02784531, -0.031851]], [2, [29.31465998, -0.001945], [13.63067536, 0.029001], [8.04907964, -0.27627], [3.25682476, -0.946826], [1.474054, 1.28698], [0.66141289, 0.065529], [0.29673638, -0.957094], [0.13456087, 0.325461], [0.06095666, 0.369531], [0.02784531, 0.058554]], [2, [0.02784531, 1.0]], [2, [0.01271987, 1.0]], [3, [2.750207, 1.0]], [3, [0.966241, 1.0]], [3, [0.339471, 1.0]], [3, [0.11926688, 1.0]], [4, [2.807857, 1.0]], [4, [1.018064, 1.0]], [4, [0.36912644, 1.0]], [5, [2.388057, 1.0]], [5, [0.8658542, 1.0]]]}
ecp = {'O': [2, [[-1, [[], [[10.27717748, 6.0]], [[15.99566749, 1232.50197768], [10.46901775, -696.47008301], [14.6384801, -2654.22657081], [12.57591181, 2101.67732548]], [[7.77739102, 61.66306486]]]], [0, [[], [], [[12.39426073, -656683.37638839], [12.38126171, 657858.57667068], [8.57671033, 511.50098405], [9.89256508, -2579.54665641], [28.05641604, -57.68129584], [17.24753607, 970.30940152]], []]], [1, [[], [], [[14.78918914, -363027.24258186], [14.82014018, 361852.52314043], [22.89622221, -1300.20069256], [8.51331893, -181.96869573], [11.48609758, 2194.87589959], [27.22017524, 451.19906206]], []]]]], 'Ti': [10, [[-1, [[], [[8.52499277, 12.0]], [[15.2433413, 2048.39512837], [9.82605516, -812.71625987], [13.73638629, -6663.62886396], [12.6545051, 5396.93874773]], [[7.54790686, 102.29991323]]]], [0, [[], [], [[6.07854372, -5355.67455847], [6.60870356, 4802.76911085], [5.40803832, 1304.66429039], [10.43037595, -1133.61681175], [18.40796253, -258.77562194], [15.384288, 672.53886697]], []]], [1, [[], [], [[9.60319864, 56981.17339652], [9.66270511, -57002.97844363], [15.06515908, 1335.72576887], [16.36599976, -813.49634683], [7.86420177, -720.45341501], [10.25452653, 239.69852194]], []]], [2, [[], [], [[10.56650824, -4262.72074057], [2.71368379, -1.34753473], [9.33780917, 1569.82864567], [31.60560687, -0.4538755], [12.28030141, 5034.44351544], [13.3677017, -2350.67846378]], []]]]]}
CPU time:         3.44


******** <class 'pyscf.scf.rohf.ROHF'> flags ********
method = ROHF
initial guess = minao
damping factor = 0
level shift factor = 1000.0
DIIS = <class 'pyscf.scf.diis.CDIIS'>
DIIS start cycle = 1
DIIS space = 8
SCF tol = 1e-09
SCF gradient tol = None
max. SCF cycles = 50
direct_scf = True
direct_scf_tol = 1e-13
chkfile to save SCF result = /rc_scratch/bamu3429/tmpSeQo0b
max_memory 4000 MB (current use 122 MB)
num. doubly occ = 8  num. singly occ = 2
Set gradient conv threshold to 3.16228e-05
init E= -73.2769688920999
  HOMO = 499.881877507012  LUMO = 1000.01246099891
cycle= 1 E= -73.2769688920997  delta_E= 1.99e-13  |g|= 1.24e-05  |ddm|= 4.41e-08
  HOMO = -0.118122494625568  LUMO = 0.0124609987906098
Extra cycle  E= -73.2769688921488  delta_E= -4.91e-11  |g|= 6.4e-06  |ddm|= 2.71e-05
converged SCF energy = -73.2769688921488
**** MO energy ****
                Roothaan           | alpha              | beta
MO #1   energy= -2.96843803268574  | -3.00765433339724  | -2.9292217291741   occ= 2
MO #2   energy= -1.88781009868322  | -1.90210739261616  | -1.87351280286211  occ= 2
MO #3   energy= -1.85611539312301  | -1.91774831323734  | -1.79448247300867  occ= 2
MO #4   energy= -1.856115393123    | -1.91774831323733  | -1.79448247300866  occ= 2
MO #5   energy= -1.1533703423815   | -1.15552665508089  | -1.15121402916882  occ= 2
MO #6   energy= -0.459189908726046 | -0.464358819623443 | -0.454020989488466 occ= 2
MO #7   energy= -0.44269493936094  | -0.445352242353036 | -0.440037636368842 occ= 2
MO #8   energy= -0.442694939360938 | -0.445352242353037 | -0.440037636368843 occ= 2
MO #9   energy= -0.123552607217984 | -0.265308616079835 | 0.0182035953831079 occ= 1
MO #10  energy= -0.118122494625568 | -0.45891251993153  | 0.222667783009584  occ= 1
MO #11  energy= 0.0124609987906098 | 0.00695821463489743 | 0.0179637829463225 occ= 0
MO #12  energy= 0.0124609987906121 | 0.0069582146348977 | 0.0179637829463223 occ= 0
MO #13  energy= 0.0153640258865545 | 0.0135916363505455 | 0.0171363975962105 occ= 0
MO #14  energy= 0.0246947720887226 | 0.0236717596876399 | 0.0257177417168289 occ= 0
MO #15  energy= 0.0372083450560416 | 0.0369488731615106 | 0.0374678169505732 occ= 0
MO #16  energy= 0.0376996394144013 | 0.0375155782340563 | 0.037883686854346  occ= 0
MO #17  energy= 0.0402664894878356 | 0.0370778033725336 | 0.0434551756031402 occ= 0
MO #18  energy= 0.0402664894878387 | 0.0370778033725386 | 0.0434551756031376 occ= 0
MO #19  energy= 0.0426509295508866 | 0.0417505817315593 | 0.0435512806869623 occ= 0
MO #20  energy= 0.0443365093934438 | 0.0338194925210377 | 0.0548535262658475 occ= 0
MO #21  energy= 0.044336509393446  | 0.0338194925210351 | 0.0548535262658522 occ= 0
MO #22  energy= 0.0615594050721712 | 0.0489917255219506 | 0.0741271158724352 occ= 0
MO #23  energy= 0.0951931513040526 | 0.0876995532040565 | 0.102686749404052  occ= 0
MO #24  energy= 0.10982131395984   | 0.106176135127634  | 0.113466492792044  occ= 0
MO #25  energy= 0.109821313959861  | 0.106176135127657  | 0.113466492792067  occ= 0
MO #26  energy= 0.111947548248862  | 0.10599830857627   | 0.117896596589084  occ= 0
MO #27  energy= 0.118024562391562  | 0.113911284963779  | 0.122137572756663  occ= 0
MO #28  energy= 0.123806320080873  | 0.119998671457872  | 0.127614020460085  occ= 0
MO #29  energy= 0.151208520645984  | 0.137702992524828  | 0.164714048767141  occ= 0
MO #30  energy= 0.151208520645993  | 0.137702992524837  | 0.16471404876715   occ= 0
MO #31  energy= 0.15415170711303   | 0.143757042970003  | 0.164546290663187  occ= 0
MO #32  energy= 0.165769774140854  | 0.157428667435791  | 0.174110880845921  occ= 0
MO #33  energy= 0.216683834094299  | 0.212400696866283  | 0.220966971322306  occ= 0
MO #34  energy= 0.216683834094401  | 0.212400696866332  | 0.22096697132246   occ= 0
MO #35  energy= 0.226909085609426  | 0.217181754791145  | 0.236636416427707  occ= 0
MO #36  energy= 0.226909085609452  | 0.217181754791216  | 0.236636416427687  occ= 0
MO #37  energy= 0.233538988803278  | 0.230610157363536  | 0.236467834378911  occ= 0
MO #38  energy= 0.342649330430642  | 0.33722335083928   | 0.348075322176977  occ= 0
MO #39  energy= 0.422173699272502  | 0.40864535528041   | 0.43570202170836   occ= 0
MO #40  energy= 0.436801562800862  | 0.428483577628499  | 0.445119547973221  occ= 0
MO #41  energy= 0.436801562800863  | 0.428483577628499  | 0.445119547973221  occ= 0
MO #42  energy= 0.437304945351104  | 0.423426638245948  | 0.451183182160096  occ= 0
MO #43  energy= 0.440349616716437  | 0.433179237811203  | 0.447519995621671  occ= 0
MO #44  energy= 0.444960663957871  | 0.432286218518303  | 0.457635109397435  occ= 0
MO #45  energy= 0.444960663957874  | 0.432286218518306  | 0.45763510939744   occ= 0
MO #46  energy= 0.475501235374211  | 0.44920288056309   | 0.501799689957383  occ= 0
MO #47  energy= 0.522124025614944  | 0.509223910920728  | 0.535024162823099  occ= 0
MO #48  energy= 0.522984733868829  | 0.515827618985278  | 0.530141848752379  occ= 0
MO #49  energy= 0.533305890540833  | 0.525224603056178  | 0.541387178025457  occ= 0
MO #50  energy= 0.533305890541062  | 0.525224603056406  | 0.541387178025678  occ= 0
MO #51  energy= 0.573191623317166  | 0.563936793604053  | 0.582446454814985  occ= 0
MO #52  energy= 0.656306449273868  | 0.654364101634971  | 0.658248796558587  occ= 0
MO #53  energy= 0.676472009346843  | 0.67090543317879   | 0.682038575233003  occ= 0
MO #54  energy= 0.680696756741997  | 0.676221173376402  | 0.685172340107586  occ= 0
MO #55  energy= 0.680696756742002  | 0.67622117337641   | 0.685172340107595  occ= 0
MO #56  energy= 0.680951212842492  | 0.678245102752291  | 0.683657322932694  occ= 0
MO #57  energy= 0.757879815626947  | 0.75361360024683   | 0.762146031007064  occ= 0
MO #58  energy= 0.757879815627012  | 0.753613600246881  | 0.762146031007145  occ= 0
MO #59  energy= 0.963196235579426  | 0.959754068021175  | 0.966638404852844  occ= 0
MO #60  energy= 1.09462654529174   | 1.08839665511094   | 1.10085643531656   occ= 0
MO #61  energy= 1.23975596902653   | 1.22916973328016   | 1.25034220477288   occ= 0
MO #62  energy= 1.23975596902666   | 1.22916973328028   | 1.25034220477302   occ= 0
MO #63  energy= 1.26046792278847   | 1.24617195155991   | 1.27476389342897   occ= 0
MO #64  energy= 1.26366393324114   | 1.25919390160233   | 1.26813396487995   occ= 0
MO #65  energy= 1.29598688382689   | 1.27734134258525   | 1.31463242506853   occ= 0
MO #66  energy= 1.29598688382689   | 1.27734134258525   | 1.31463242506853   occ= 0
MO #67  energy= 1.34135503522433   | 1.33413395459947   | 1.34857611584919   occ= 0
MO #68  energy= 1.34135503522435   | 1.33413395459949   | 1.34857611584921   occ= 0
MO #69  energy= 1.3673382541689    | 1.36129938492439   | 1.37337712341341   occ= 0
MO #70  energy= 1.3673382541689    | 1.36129938492439   | 1.37337712341342   occ= 0
MO #71  energy= 1.37362735850831   | 1.36551809118491   | 1.38173662798355   occ= 0
MO #72  energy= 1.53781726397824   | 1.53151102026926   | 1.54412350769005   occ= 0
MO #73  energy= 1.60046687916781   | 1.5908578535478    | 1.61007590478783   occ= 0
MO #74  energy= 1.60046687916789   | 1.59085785354787   | 1.6100759047879    occ= 0
MO #75  energy= 1.6066786731143    | 1.59668956849384   | 1.61666778764131   occ= 0
MO #76  energy= 1.60891394387454   | 1.60488399831472   | 1.61294388943436   occ= 0
MO #77  energy= 1.6475991768172    | 1.64702875980398   | 1.64816959383042   occ= 0
MO #78  energy= 1.64790384049175   | 1.6468575513965    | 1.64895012971303   occ= 0
MO #79  energy= 1.68327521912787   | 1.67148337027052   | 1.69506706866263   occ= 0
MO #80  energy= 1.6833217613951    | 1.67148069924775   | 1.69516282354246   occ= 0
MO #81  energy= 1.71602438965591   | 1.71221093417806   | 1.7198378459355    occ= 0
MO #82  energy= 1.72523637580218   | 1.72109878016502   | 1.72937397143933   occ= 0
MO #83  energy= 1.72523637580218   | 1.72109878016502   | 1.72937397143934   occ= 0
MO #84  energy= 1.84334840175228   | 1.83584533907409   | 1.85085146443048   occ= 0
MO #85  energy= 1.84334840175229   | 1.83584533907409   | 1.85085146443048   occ= 0
MO #86  energy= 1.86041327121726   | 1.85490148658723   | 1.86592505632301   occ= 0
MO #87  energy= 2.04532350515267   | 2.0197720212569    | 2.07087501896375   occ= 0
MO #88  energy= 2.0519141911507    | 2.04520774643194   | 2.05862063586947   occ= 0
MO #89  energy= 2.08772136020254   | 2.08312376005487   | 2.09231896035021   occ= 0
MO #90  energy= 2.08772136020254   | 2.08312376005487   | 2.09231896035021   occ= 0
MO #91  energy= 2.19563824617709   | 2.18984644517063   | 2.20143004772827   occ= 0
MO #92  energy= 2.30336559844231   | 2.29373414062443   | 2.31299705756188   occ= 0
MO #93  energy= 2.45746021389014   | 2.42536122032023   | 2.48955919246577   occ= 0
MO #94  energy= 2.47271427748258   | 2.4676755396984    | 2.47775301526675   occ= 0
MO #95  energy= 2.50551875374526   | 2.50341728246217   | 2.50762022502836   occ= 0
MO #96  energy= 2.50551875374528   | 2.50341728246219   | 2.50762022502838   occ= 0
MO #97  energy= 2.82340615396376   | 2.81831166990523   | 2.82850063794749   occ= 0
MO #98  energy= 3.23838579834727   | 3.23252459279467   | 3.24424700389988   occ= 0
MO #99  energy= 3.23838579834728   | 3.23252459279467   | 3.24424700389988   occ= 0
MO #100 energy= 3.4507485561618    | 3.44236899002547   | 3.45912812244666   occ= 0
MO #101 energy= 3.47058281767574   | 3.4343473662901    | 3.50681826906139   occ= 0
MO #102 energy= 3.47058281767575   | 3.43434736629011   | 3.50681826906139   occ= 0
MO #103 energy= 3.47503792464105   | 3.46742739425989   | 3.48264845502222   occ= 0
MO #104 energy= 3.47503792464109   | 3.46742739425991   | 3.48264845502226   occ= 0
MO #105 energy= 3.49720204788388   | 3.47271225426407   | 3.52169183712468   occ= 0
MO #106 energy= 3.50203800452784   | 3.49846619311428   | 3.50560981594141   occ= 0
MO #107 energy= 3.68590988579068   | 3.68548728861717   | 3.6863324829642    occ= 0
MO #108 energy= 3.6859099866679    | 3.68548674861799   | 3.68633322473111   occ= 0
MO #109 energy= 3.77737102005283   | 3.77590040932638   | 3.77884163077927   occ= 0
MO #110 energy= 3.77737102005283   | 3.77590040932638   | 3.77884163077927   occ= 0
MO #111 energy= 3.97140409897897   | 3.97005956929485   | 3.97274862866311   occ= 0
MO #112 energy= 3.97253022595172   | 3.96680517784462   | 3.97825527255458   occ= 0
MO #113 energy= 3.9930448679735    | 3.9911368914569    | 3.99495284448948   occ= 0
MO #114 energy= 4.06442665112611   | 4.05762672646763   | 4.07122657578459   occ= 0
MO #115 energy= 4.06442665112613   | 4.05762672646765   | 4.07122657578461   occ= 0
MO #116 energy= 4.10853972313158   | 4.10835033759291   | 4.10872910867026   occ= 0
MO #117 energy= 4.10853972313158   | 4.1083503375929    | 4.10872910867025   occ= 0
MO #118 energy= 4.15496491720018   | 4.1519702126543    | 4.15795962143058   occ= 0
MO #119 energy= 4.27310070783424   | 4.27281482675915   | 4.27338658890934   occ= 0
MO #120 energy= 4.27326983810836   | 4.27203575993036   | 4.27450391599951   occ= 0
MO #121 energy= 4.29987919119399   | 4.29806655019835   | 4.30169183218965   occ= 0
MO #122 energy= 4.299879191194     | 4.29806655019835   | 4.30169183218965   occ= 0
MO #123 energy= 4.35851517418672   | 4.35526858792734   | 4.36176176029242   occ= 0
MO #124 energy= 4.40705453595356   | 4.39909894257836   | 4.41501012932877   occ= 0
MO #125 energy= 4.40705453595363   | 4.39909894257842   | 4.41501012932885   occ= 0
MO #126 energy= 4.59017700974107   | 4.5893579938294    | 4.59099602565276   occ= 0
MO #127 energy= 4.59101058928333   | 4.58805615741271   | 4.59396501996032   occ= 0
MO #128 energy= 4.71383703554155   | 4.70811097741475   | 4.71956309340272   occ= 0
MO #129 energy= 4.82844013015384   | 4.81640167278261   | 4.84047858752506   occ= 0
MO #130 energy= 4.82844013015384   | 4.81640167278261   | 4.84047858752506   occ= 0
MO #131 energy= 4.87136434334035   | 4.86324197253023   | 4.87948671414668   occ= 0
MO #132 energy= 4.8713663453954    | 4.86325075247892   | 4.87948193831187   occ= 0
MO #133 energy= 4.87512713211979   | 4.86837528694915   | 4.88187897729042   occ= 0
MO #134 energy= 4.87512713211979   | 4.86837528694917   | 4.88187897729044   occ= 0
MO #135 energy= 4.96759544827874   | 4.94789057024513   | 4.98730032631237   occ= 0
MO #136 energy= 4.96761035253384   | 4.94795530064449   | 4.98726540740959   occ= 0
MO #137 energy= 5.01404722036543   | 5.00237388993932   | 5.02572055079153   occ= 0
MO #138 energy= 5.01404722036543   | 5.0023738899393    | 5.02572055079152   occ= 0
MO #139 energy= 5.13995712263731   | 5.13657481715278   | 5.1433394281966    occ= 0
MO #140 energy= 5.19351263804229   | 5.19042855114081   | 5.19659672494377   occ= 0
MO #141 energy= 5.20021583504827   | 5.18805677527258   | 5.21237489828915   occ= 0
MO #142 energy= 5.22071456859945   | 5.21537617809464   | 5.22605295910424   occ= 0
MO #143 energy= 5.22071456859945   | 5.21537617809465   | 5.22605295910425   occ= 0
MO #144 energy= 5.4644420124351    | 5.46111656417671   | 5.46776746074518   occ= 0
MO #145 energy= 5.73713376365709   | 5.73389878018725   | 5.74036874713347   occ= 0
MO #146 energy= 5.74476262035013   | 5.74159953859084   | 5.74792570210943   occ= 0
MO #147 energy= 5.74476262035013   | 5.74159953859083   | 5.74792570210943   occ= 0
MO #148 energy= 5.77900246951328   | 5.77630384644685   | 5.78170109257973   occ= 0
MO #149 energy= 5.78067972062372   | 5.76555165003694   | 5.79580778445232   occ= 0
MO #150 energy= 6.04772255672103   | 6.04354521155236   | 6.05189990188968   occ= 0
MO #151 energy= 6.04772255672104   | 6.04354521155237   | 6.0518999018897    occ= 0
MO #152 energy= 6.56013267950111   | 6.53460581397512   | 6.58565954108416   occ= 0
MO #153 energy= 6.56053320651965   | 6.55649897499705   | 6.56456743804226   occ= 0
MO #154 energy= 6.83149915821633   | 6.8277268988399    | 6.83527141772336   occ= 0
MO #155 energy= 7.54422837598168   | 7.53031840260388   | 7.55813834946326   occ= 0
MO #156 energy= 7.86943620593128   | 7.86364791895351   | 7.87522449290904   occ= 0
MO #157 energy= 7.86943620593133   | 7.86364791895355   | 7.8752244929091    occ= 0
MO #158 energy= 8.97587888716818   | 8.96891663848088   | 8.9828411359143    occ= 0
MO #159 energy= 9.26167083666493   | 9.23177210842454   | 9.29156956490533   occ= 0
MO #160 energy= 9.26167083666493   | 9.23177210842453   | 9.29156956490532   occ= 0
MO #161 energy= 9.31078621000936   | 9.30654712086312   | 9.31502529915558   occ= 0
MO #162 energy= 9.31188080266306   | 9.28686570853939   | 9.33689589678835   occ= 0
MO #163 energy= 9.47655985855249   | 9.46997676292447   | 9.4831429541805    occ= 0
MO #164 energy= 9.47655985855256   | 9.46997676292456   | 9.48314295418056   occ= 0
MO #165 energy= 9.93607363119366   | 9.93185469897889   | 9.94029256340843   occ= 0
MO #166 energy= 9.93607363119379   | 9.93185469897906   | 9.94029256340855   occ= 0
MO #167 energy= 10.0345699993984   | 10.0309200540038   | 10.0382199447953   occ= 0
MO #168 energy= 10.6583044421836   | 10.6582530924189   | 10.6583557919484   occ= 0
MO #169 energy= 10.6583044524849   | 10.6582530941213   | 10.6583558108485   occ= 0
MO #170 energy= 10.7269124004053   | 10.7259117753795   | 10.727913025435    occ= 0
MO #171 energy= 10.762725217392    | 10.7626225526738   | 10.7628278821103   occ= 0
MO #172 energy= 10.762725217392    | 10.7626225526738   | 10.7628278821103   occ= 0
MO #173 energy= 10.9680747350975   | 10.967985433949    | 10.968164036246    occ= 0
MO #174 energy= 10.9683100974128   | 10.9681265634735   | 10.9684936313603   occ= 0
MO #175 energy= 11.0058072049002   | 11.0052241935865   | 11.0063902162139   occ= 0
MO #176 energy= 11.0058072049002   | 11.0052241935865   | 11.0063902162139   occ= 0
MO #177 energy= 11.3343514792713   | 11.331835071517    | 11.3368678870225   occ= 0
MO #178 energy= 11.4212537432362   | 11.409942586878    | 11.4325648995943   occ= 0
MO #179 energy= 11.4212537432363   | 11.4099425868781   | 11.4325648995944   occ= 0
MO #180 energy= 11.622605308189    | 11.6225253907367   | 11.6226852256413   occ= 0
MO #181 energy= 11.622605308189    | 11.6225253907367   | 11.6226852256414   occ= 0
MO #182 energy= 11.756048291112    | 11.7558855132584   | 11.7562110689655   occ= 0
MO #183 energy= 11.7564006531854   | 11.7559681237919   | 11.7568331826142   occ= 0
MO #184 energy= 11.7587154727566   | 11.7548783984873   | 11.7625525470183   occ= 0
MO #185 energy= 12.2687276910743   | 12.2671823226996   | 12.270273059449    occ= 0
MO #186 energy= 12.2687276910743   | 12.2671823226996   | 12.270273059449    occ= 0
MO #187 energy= 12.6714994939925   | 12.6714156264153   | 12.6715833615696   occ= 0
MO #188 energy= 12.6716302874443   | 12.6714927674876   | 12.671767807415    occ= 0
MO #189 energy= 12.8141737738985   | 12.8119669752227   | 12.8163805725746   occ= 0
MO #190 energy= 13.0403481562619   | 13.03610890533     | 13.0445874071938   occ= 0
MO #191 energy= 13.0592528425867   | 13.0583718961331   | 13.0601337890402   occ= 0
MO #192 energy= 13.0592528425867   | 13.0583718961332   | 13.0601337890402   occ= 0
MO #193 energy= 13.3071079127733   | 13.2851471894027   | 13.3290686361438   occ= 0
MO #194 energy= 13.3071425515891   | 13.2851259789389   | 13.3291591242045   occ= 0
MO #195 energy= 13.3193866998244   | 13.3060734174862   | 13.3326999821626   occ= 0
MO #196 energy= 13.3193866998244   | 13.3060734174862   | 13.3326999821626   occ= 0
MO #197 energy= 13.428274471032    | 13.4244936835699   | 13.4320552584942   occ= 0
MO #198 energy= 13.4378439107684   | 13.4225394085692   | 13.4531484124084   occ= 0
MO #199 energy= 13.8555774273073   | 13.8484381633009   | 13.8627166913137   occ= 0
MO #200 energy= 13.8555774273073   | 13.8484381633009   | 13.8627166913137   occ= 0
MO #201 energy= 14.133930274925    | 14.1230808019917   | 14.1447797478611   occ= 0
MO #202 energy= 14.1339741468738   | 14.1230784544618   | 14.1448698392858   occ= 0
MO #203 energy= 14.1347536161287   | 14.1185842461219   | 14.1509229861356   occ= 0
MO #204 energy= 14.1347536161287   | 14.1185842461219   | 14.1509229861356   occ= 0
MO #205 energy= 14.2199636159357   | 14.2119773287772   | 14.2279499030943   occ= 0
MO #206 energy= 14.2199636159357   | 14.2119773287772   | 14.2279499030943   occ= 0
MO #207 energy= 14.4129643795166   | 14.4091403194632   | 14.4167884395688   occ= 0
MO #208 energy= 14.4461801997461   | 14.4433235547425   | 14.4490368447497   occ= 0
MO #209 energy= 14.4591979223897   | 14.4488793580593   | 14.4695164867342   occ= 0
MO #210 energy= 14.608915987733    | 14.6031998670115   | 14.6146321084545   occ= 0
MO #211 energy= 14.608915987733    | 14.6031998670115   | 14.6146321084545   occ= 0
MO #212 energy= 14.6991475535759   | 14.6937423339473   | 14.7045527732035   occ= 0
MO #213 energy= 17.2432269634841   | 17.2389873239116   | 17.2474666030587   occ= 0
MO #214 energy= 20.5708410837652   | 20.5706429163292   | 20.5710392512019   occ= 0
 ** Mulliken pop on meta-lowdin orthogonal AOs  **
 ** Mulliken pop  **
pop of  0Ti 3s        1.99957
pop of  0Ti 4s        0.89224
pop of  0Ti 5s        0.00434
pop of  0Ti 6s        0.00255
pop of  0Ti 7s        0.00031
pop of  0Ti 8s        0.00125
pop of  0Ti 9s        0.00104
pop of  0Ti 3px       1.99917
pop of  0Ti 3py       1.99917
pop of  0Ti 3pz       1.99609
pop of  0Ti 4px       0.00712
pop of  0Ti 4py       0.00712
pop of  0Ti 4pz       0.05942
pop of  0Ti 5px       0.00017
pop of  0Ti 5py       0.00017
pop of  0Ti 5pz       0.00636
pop of  0Ti 6px       0.00005
pop of  0Ti 6py       0.00005
pop of  0Ti 6pz       0.00177
pop of  0Ti 7px       0.00003
pop of  0Ti 7py       0.00003
pop of  0Ti 7pz       0.00086
pop of  0Ti 8px       0.00048
pop of  0Ti 8py       0.00048
pop of  0Ti 8pz       0.01349
pop of  0Ti 9px       0.00004
pop of  0Ti 9py       0.00004
pop of  0Ti 9pz       0.00151
pop of  0Ti 3dxy      0.98912
pop of  0Ti 3dyz      0.30498
pop of  0Ti 3dz^2     0.52190
pop of  0Ti 3dxz      0.30498
pop of  0Ti 3dx2-y2    0.00030
pop of  0Ti 4dxy      0.00737
pop of  0Ti 4dyz      0.00029
pop of  0Ti 4dz^2     0.00944
pop of  0Ti 4dxz      0.00029
pop of  0Ti 4dx2-y2    0.00000
pop of  0Ti 5dxy      0.00071
pop of  0Ti 5dyz      0.00012
pop of  0Ti 5dz^2     0.00281
pop of  0Ti 5dxz      0.00012
pop of  0Ti 5dx2-y2    0.00000
pop of  0Ti 6dxy      0.00012
pop of  0Ti 6dyz      0.00001
pop of  0Ti 6dz^2     0.00016
pop of  0Ti 6dxz      0.00001
pop of  0Ti 6dx2-y2    0.00000
pop of  0Ti 7dxy      0.00091
pop of  0Ti 7dyz      0.00000
pop of  0Ti 7dz^2     0.00112
pop of  0Ti 7dxz      0.00000
pop of  0Ti 7dx2-y2    0.00000
pop of  0Ti 8dxy      0.00004
pop of  0Ti 8dyz      0.00000
pop of  0Ti 8dz^2     0.00007
pop of  0Ti 8dxz      0.00000
pop of  0Ti 8dx2-y2    0.00000
pop of  0Ti 4fy^3     0.00003
pop of  0Ti 4fxyz     0.00000
pop of  0Ti 4fyz^2    0.00006
pop of  0Ti 4fz^3     0.00012
pop of  0Ti 4fxz^2    0.00006
pop of  0Ti 4fzx^2    0.00000
pop of  0Ti 4fx^3     0.00003
pop of  0Ti 5fy^3     0.00006
pop of  0Ti 5fxyz     0.00002
pop of  0Ti 5fyz^2    0.00064
pop of  0Ti 5fz^3     0.00088
pop of  0Ti 5fxz^2    0.00064
pop of  0Ti 5fzx^2    0.00000
pop of  0Ti 5fx^3     0.00006
pop of  0Ti 6fy^3     0.00004
pop of  0Ti 6fxyz     0.00006
pop of  0Ti 6fyz^2    0.00102
pop of  0Ti 6fz^3     0.00376
pop of  0Ti 6fxz^2    0.00102
pop of  0Ti 6fzx^2    0.00000
pop of  0Ti 6fx^3     0.00004
pop of  0Ti 7fy^3     0.00000
pop of  0Ti 7fxyz     0.00002
pop of  0Ti 7fyz^2    0.00034
pop of  0Ti 7fz^3     0.00235
pop of  0Ti 7fxz^2    0.00034
pop of  0Ti 7fzx^2    0.00000
pop of  0Ti 7fx^3     0.00000
pop of  0Ti 5g-4      0.00000
pop of  0Ti 5g-3      0.00000
pop of  0Ti 5g-2      0.00000
pop of  0Ti 5g-1      0.00000
pop of  0Ti 5g 0      0.00001
pop of  0Ti 5g 1      0.00000
pop of  0Ti 5g 2      0.00000
pop of  0Ti 5g 3      0.00000
pop of  0Ti 5g 4      0.00000
pop of  0Ti 6g-4      0.00000
pop of  0Ti 6g-3      0.00000
pop of  0Ti 6g-2      0.00001
pop of  0Ti 6g-1      0.00007
pop of  0Ti 6g 0      0.00010
pop of  0Ti 6g 1      0.00007
pop of  0Ti 6g 2      0.00000
pop of  0Ti 6g 3      0.00000
pop of  0Ti 6g 4      0.00000
pop of  0Ti 7g-4      0.00000
pop of  0Ti 7g-3      0.00000
pop of  0Ti 7g-2      0.00000
pop of  0Ti 7g-1      0.00001
pop of  0Ti 7g 0      0.00143
pop of  0Ti 7g 1      0.00001
pop of  0Ti 7g 2      0.00000
pop of  0Ti 7g 3      0.00000
pop of  0Ti 7g 4      0.00001
pop of  0Ti 6h-5      0.00000
pop of  0Ti 6h-4      0.00000
pop of  0Ti 6h-3      0.00000
pop of  0Ti 6h-2      0.00000
pop of  0Ti 6h-1      0.00000
pop of  0Ti 6h 0      0.00000
pop of  0Ti 6h 1      0.00000
pop of  0Ti 6h 2      0.00000
pop of  0Ti 6h 3      0.00000
pop of  0Ti 6h 4      0.00000
pop of  0Ti 6h 5      0.00000
pop of  0Ti 7h-5      0.00000
pop of  0Ti 7h-4      0.00000
pop of  0Ti 7h-3      0.00000
pop of  0Ti 7h-2      0.00001
pop of  0Ti 7h-1      0.00001
pop of  0Ti 7h 0      0.00016
pop of  0Ti 7h 1      0.00001
pop of  0Ti 7h 2      0.00000
pop of  0Ti 7h 3      0.00000
pop of  0Ti 7h 4      0.00000
pop of  0Ti 7h 5      0.00000
pop of  1O 2s        1.85475
pop of  1O 3s        0.00196
pop of  1O 4s        0.00036
pop of  1O 5s        0.00649
pop of  1O 6s        0.01638
pop of  1O 2px       1.67112
pop of  1O 2py       1.67112
pop of  1O 2pz       1.57734
pop of  1O 3px       0.00075
pop of  1O 3py       0.00075
pop of  1O 3pz       0.00028
pop of  1O 4px       0.00032
pop of  1O 4py       0.00032
pop of  1O 4pz       0.00070
pop of  1O 5px       0.00391
pop of  1O 5py       0.00391
pop of  1O 5pz       0.00131
pop of  1O 6px       0.00191
pop of  1O 6py       0.00191
pop of  1O 6pz       0.00468
pop of  1O 3dxy      0.00000
pop of  1O 3dyz      0.00009
pop of  1O 3dz^2     0.00013
pop of  1O 3dxz      0.00009
pop of  1O 3dx2-y2    0.00000
pop of  1O 4dxy      0.00001
pop of  1O 4dyz      0.00099
pop of  1O 4dz^2     0.00135
pop of  1O 4dxz      0.00099
pop of  1O 4dx2-y2    0.00000
pop of  1O 5dxy      0.00004
pop of  1O 5dyz      0.00309
pop of  1O 5dz^2     0.00233
pop of  1O 5dxz      0.00309
pop of  1O 5dx2-y2    0.00000
pop of  1O 6dxy      0.00094
pop of  1O 6dyz      0.00281
pop of  1O 6dz^2     0.00555
pop of  1O 6dxz      0.00281
pop of  1O 6dx2-y2    0.00000
pop of  1O 4fy^3     0.00000
pop of  1O 4fxyz     0.00000
pop of  1O 4fyz^2    0.00001
pop of  1O 4fz^3     0.00002
pop of  1O 4fxz^2    0.00001
pop of  1O 4fzx^2    0.00000
pop of  1O 4fx^3     0.00000
pop of  1O 5fy^3     0.00000
pop of  1O 5fxyz     0.00000
pop of  1O 5fyz^2    0.00014
pop of  1O 5fz^3     0.00016
pop of  1O 5fxz^2    0.00014
pop of  1O 5fzx^2    0.00000
pop of  1O 5fx^3     0.00000
pop of  1O 6fy^3     0.00000
pop of  1O 6fxyz     0.00030
pop of  1O 6fyz^2    0.00012
pop of  1O 6fz^3     0.00094
pop of  1O 6fxz^2    0.00012
pop of  1O 6fzx^2    0.00000
pop of  1O 6fx^3     0.00000
pop of  1O 5g-4      0.00000
pop of  1O 5g-3      0.00000
pop of  1O 5g-2      0.00000
pop of  1O 5g-1      0.00001
pop of  1O 5g 0      0.00001
pop of  1O 5g 1      0.00001
pop of  1O 5g 2      0.00000
pop of  1O 5g 3      0.00000
pop of  1O 5g 4      0.00000
pop of  1O 6g-4      0.00000
pop of  1O 6g-3      0.00000
pop of  1O 6g-2      0.00001
pop of  1O 6g-1      0.00000
pop of  1O 6g 0      0.00012
pop of  1O 6g 1      0.00000
pop of  1O 6g 2      0.00000
pop of  1O 6g 3      0.00000
pop of  1O 6g 4      0.00000
 ** Mulliken atomic charges  **
charge of  0Ti =      0.84673
charge of  1O =     -0.84673

******** <class 'pyscf.mcscf.mc1step.CASSCF'> flags ********
CAS (5e+3e, 9o), ncore = 5, nvir = 200
max_cycle_macro = 50
max_cycle_micro = 4
conv_tol = 1e-07
conv_tol_grad = None
orbital rotation max_stepsize = 0.02
augmented hessian ah_max_cycle = 30
augmented hessian ah_conv_tol = 1e-12
augmented hessian ah_linear dependence = 1e-14
augmented hessian ah_level shift = 0
augmented hessian ah_start_tol = 2.5
augmented hessian ah_start_cycle = 3
augmented hessian ah_grad_trust_region = 3
kf_trust_region = 3
kf_interval = 4
ci_response_space = 4
ci_grad_trust_region = 3
with_dep4 0
natorb = False
canonicalization = True
sorting_mo_energy = False
chkfile = ./scratch/154304/tmp4fqYB5
max_memory 4000 MB (current use 2625 MB)
internal_rotation = False

******** SHCI flags ********
executable             = /home/bamu3429/softwares/dice/Dice
mpiprefix              = srun -n20
scratchDirectory       = ./scratch/154304
integralFile           = ./FCIDUMP
configFile             = ./input.dat
outputFile             = ./output.dat
maxIter                = 6
sweep_iter             = []
sweep_epsilon          = []
nPTiter                = 0
Stochastic             = True
fullrestart            = False
restart                = False
num_thrds              = 12
memory                 = None

CASCI E = -73.2769810345612  S^2 = 2.0000000
Set conv_tol_grad to 0.000316228
macro iter 1 (7 JK  2 micro), CASSCF E = -73.277098573799  dE = -0.00011753924  S^2 = 2.0000000
               |grad[o]|=0.000148  |grad[c]|= None  |ddm|=0.0171
macro iter 2 (21 JK  4 micro), CASSCF E = -73.2824006793848  dE = -0.0053021056  S^2 = 2.0000000
               |grad[o]|=0.000861  |grad[c]|= None  |ddm|=0.0326
macro iter 3 (21 JK  4 micro), CASSCF E = -73.3015743655263  dE = -0.019173686  S^2 = 2.0000000
               |grad[o]|=0.0244  |grad[c]|= None  |ddm|=0.0499
macro iter 4 (21 JK  4 micro), CASSCF E = -73.3055156185082  dE = -0.003941253  S^2 = 2.0000000
               |grad[o]|= 0.05  |grad[c]|= None  |ddm|=0.0422
macro iter 5 (21 JK  4 micro), CASSCF E = -73.3167433580077  dE = -0.011227739  S^2 = 2.0000000
               |grad[o]|=0.0387  |grad[c]|= None  |ddm|=0.053
macro iter 6 (21 JK  4 micro), CASSCF E = -73.3607364286537  dE = -0.043993071  S^2 = 2.0000000
               |grad[o]|=0.0545  |grad[c]|= None  |ddm|=0.0572
macro iter 7 (21 JK  4 micro), CASSCF E = -73.4063022172405  dE = -0.045565789  S^2 = 2.0000000
               |grad[o]|=0.0794  |grad[c]|= None  |ddm|=0.0387
macro iter 8 (21 JK  4 micro), CASSCF E = -73.4212897834453  dE = -0.014987566  S^2 = 2.0000000
               |grad[o]|=0.0544  |grad[c]|= None  |ddm|=0.0333
macro iter 9 (20 JK  4 micro), CASSCF E = -73.4227429190817  dE = -0.0014531356  S^2 = 2.0000000
               |grad[o]|=0.0129  |grad[c]|= None  |ddm|=0.00887
macro iter 10 (14 JK  4 micro), CASSCF E = -73.4228132585187  dE = -7.0339437e-05  S^2 = 2.0000000
               |grad[o]|=0.00262  |grad[c]|= None  |ddm|=0.00346
macro iter 11 (10 JK  2 micro), CASSCF E = -73.4228138880783  dE = -6.2955955e-07  S^2 = 2.0000000
               |grad[o]|=0.000224  |grad[c]|= None  |ddm|=0.000316
macro iter 12 (7 JK  2 micro), CASSCF E = -73.4228146797881  dE = -7.9170984e-07  S^2 = 2.0000000
               |grad[o]|=0.000233  |grad[c]|= None  |ddm|=0.000226
macro iter 13 (14 JK  4 micro), CASSCF E = -73.4228125819556  dE = 2.0978326e-06  S^2 = 2.0000000
               |grad[o]|=0.000707  |grad[c]|= None  |ddm|=0.000713
macro iter 14 (18 JK  4 micro), CASSCF E = -73.4228141707344  dE = -1.5887789e-06  S^2 = 2.0000000
               |grad[o]|=0.00308  |grad[c]|= None  |ddm|=0.000242
macro iter 15 (6 JK  2 micro), CASSCF E = -73.4228151056884  dE = -9.3495402e-07  S^2 = 2.0000000
               |grad[o]|=0.000241  |grad[c]|= None  |ddm|=0.000227
macro iter 16 (7 JK  2 micro), CASSCF E = -73.4228150908991  dE = 1.4789379e-08  S^2 = 2.0000000
               |grad[o]|=0.000766  |grad[c]|= None  |ddm|=0.000115
macro iter 17 (5 JK  1 micro), CASSCF E = -73.4228151633159  dE = -7.2416881e-08  S^2 = 2.0000000
               |grad[o]|=0.00014  |grad[c]|= None  |ddm|=0.00015
1-step CASSCF converged in 17 macro (255 JK 55 micro) steps
CASSCF canonicalization
CASSCF energy = -73.4228151633159


--------------------------------------------------
                 ICMPSPT CALCULATION              
--------------------------------------------------

Perturbation type: MRLCC
With fully internally contracted scheme
With third order correction

Preparing necessary RDMs
......production of RDMs took      39.39 sec
Reading binary 4RDM from DICE
......reading the RDM took         28.79 sec

(GOOD) Trace 4RDM:   1680.0 =    8*    7*    6*    5
(GOOD) Trace 3RDM:    336.0 =    8*    7*    6
(GOOD) Trace 2RDM:     56.0 =    8*    7
(GOOD) Trace 1RDM:      8.0 =    8

Producing the integrals
......production of INT took     557.64 sec

Energy_core =  -81.05872927
Energy      =  -73.42281516

WARNING: Have to use natural orbitals from CAASCF
         offdiagonal elements:    0.65121717

Basic ingredients written to int/
......savings of INGREDIENTS took     258.00 sec

Second-order:
perturber CCVV --        -0.170868057
perturber CCAV --        -0.080032817
perturber ACVV --        -0.143537825
perturber CCAA --        -0.027117463
perturber AAVV --        -0.108736760
perturber CAAV --        -0.113898427
