 &FCI NORB=6 ,NELEC=6 ,MS2=6,
  ORBSYM=1,1,1,1,1,1,
  ISYM=1,
 &END
  8.668027339332e-01    1  1  1  1
  3.886576388824e-02    2  1  2  1
  7.890712061567e-01    2  2  1  1
  8.668027339332e-01    2  2  2  2
  1.981155407774e-04    3  1  2  1
  9.863643392595e-04    3  1  2  2
  3.132005185384e-02    3  1  3  1
 -3.962310815546e-04    3  2  1  1
 -4.931821696290e-04    3  2  2  1
 -6.388300741190e-03    3  2  3  1
  2.634776772596e-02    3  2  3  2
  8.041626302255e-01    3  3  1  1
  1.277660148238e-02    3  3  2  1
  8.141071984813e-01    3  3  2  2
  8.668027339332e-01    3  3  3  3
  1.819130700843e-04    4  1  2  1
  5.972147847516e-04    4  1  2  2
  6.169534931549e-03    4  1  3  1
 -2.602571215103e-03    4  1  3  2
 -5.378532445694e-03    4  1  3  3
  2.447484470556e-02    4  1  4  1
 -3.638261401686e-04    4  2  1  1
 -2.986073923756e-04    4  2  2  1
 -2.832602293271e-03    4  2  3  1
 -6.349982173928e-03    4  2  3  2
 -2.279000878388e-03    4  2  3  3
 -1.307437561569e-03    4  2  4  1
  3.334583924586e-02    4  2  4  2
 -1.233906986310e-02    4  3  1  1
  5.435173508374e-03    4  3  2  1
  1.269996434786e-02    4  3  2  2
  2.689266222847e-03    4  3  3  1
  1.139500439194e-03    4  3  3  2
  4.920252811486e-03    4  3  4  1
 -3.409328857835e-03    4  3  4  2
  3.347547799360e-02    4  3  4  3
  8.178530445221e-01    4  4  1  1
  2.614875123138e-03    4  4  2  1
  8.001110554415e-01    4  4  2  2
 -9.840505622971e-03    4  4  3  1
  6.818657715669e-03    4  4  3  2
  7.998517779460e-01    4  4  3  3
  8.668027339332e-01    4  4  4  4
 -1.317309320606e-04    5  1  2  1
 -2.985307707621e-05    5  1  2  2
 -2.889010501734e-03    5  1  3  1
  8.011496723924e-04    5  1  3  2
 -1.106717513319e-02    5  1  3  3
  4.034479880419e-03    5  1  4  1
  3.778751613436e-03    5  1  4  2
  5.691873668586e-03    5  1  4  3
  1.109702821027e-02    5  1  4  4
  3.055916982773e-02    5  1  5  1
  2.634618641215e-04    5  2  1  1
  1.492653853810e-05    5  2  2  1
  5.220973416885e-04    5  2  3  1
  2.607094366443e-03    5  2  3  2
 -8.102616099258e-03    5  2  3  3
  4.675186052180e-03    5  2  4  1
 -3.711161797113e-03    5  2  4  2
  6.427693681876e-03    5  2  4  3
  7.839154235137e-03    5  2  4  4
  7.695738302758e-03    5  2  5  1
  2.666045941531e-02    5  2  5  2
  5.778021003468e-03    5  3  1  1
 -1.323247014081e-03    5  3  2  1
 -5.214188732885e-03    5  3  2  2
  5.533587566596e-03    5  3  3  1
  4.051308049629e-03    5  3  3  2
  2.435153047661e-03    5  3  4  1
 -1.387566704684e-02    5  3  4  2
 -3.233180833061e-04    5  3  4  3
 -5.638322705818e-04    5  3  4  4
 -4.427070641857e-03    5  3  5  1
  3.211213317057e-03    5  3  5  2
  3.407653270198e-02    5  3  5  3
 -8.068959760838e-03    5  4  1  1
 -8.453937665616e-03    5  4  2  1
  7.422323594226e-03    5  4  2  2
 -8.127026716247e-03    5  4  3  1
  7.447973364967e-03    5  4  3  2
  6.466361666128e-04    5  4  3  3
 -5.548514105134e-03    5  4  4  1
 -3.919577117568e-03    5  4  4  2
  2.819161352908e-04    5  4  4  3
 -2.390658830471e-03    5  4  5  1
 -1.321413509278e-03    5  4  5  2
  1.804472423795e-04    5  4  5  3
  3.392366833035e-02    5  4  5  4
  8.056843942777e-01    5  5  1  1
 -1.539147660552e-02    5  5  2  1
  8.134818151026e-01    5  5  2  2
  8.854141283715e-03    5  5  3  1
 -6.422426634114e-03    5  5  3  2
  7.986496685293e-01    5  5  3  3
  4.781317660942e-03    5  5  4  1
  2.642827018556e-03    5  5  4  2
 -3.608944847586e-04    5  5  4  3
  7.989553972725e-01    5  5  4  4
  8.668027339332e-01    5  5  5  5
  2.646437300424e-04    6  1  1  1
 -1.238488705026e-03    6  1  2  1
 -2.690242344370e-04    6  1  2  2
 -7.555399233296e-05    6  1  3  1
  5.516743749740e-05    6  1  3  2
 -8.526872198343e-04    6  1  3  3
 -4.067052474001e-05    6  1  4  1
  3.162318670039e-05    6  1  4  2
 -5.070602952618e-04    6  1  4  3
  3.565682875478e-06    6  1  4  4
  2.609918507549e-05    6  1  5  1
  1.112928614425e-06    6  1  5  2
  1.253988051268e-04    6  1  5  3
  4.506940509541e-04    6  1  5  4
  8.535020413571e-04    6  1  5  5
  9.136628997497e-03    6  1  6  1
 -1.238488705029e-03    6  2  1  1
 -2.690242344377e-04    6  2  2  1
  1.240631165326e-03    6  2  2  2
  5.516743749739e-05    6  2  3  1
 -2.595971357805e-07    6  2  3  2
  1.285364034971e-04    6  2  3  3
  3.162318670039e-05    6  2  4  1
  1.889452778527e-05    6  2  4  2
  7.018466092841e-04    6  2  4  3
 -5.978840274273e-04    6  2  4  4
  1.112928614426e-06    6  2  5  1
 -6.119105655930e-06    6  2  5  2
 -3.163451436564e-04    6  2  5  3
  5.645927506817e-04    6  2  5  4
  4.672051636143e-04    6  2  5  5
  9.136628997497e-03    6  2  6  2
 -7.555399233291e-05    6  3  1  1
  5.516743749741e-05    6  3  2  1
 -2.595971357353e-07    6  3  2  2
 -8.526872198347e-04    6  3  3  1
  1.285364035006e-04    6  3  3  2
  1.646754763625e-04    6  3  3  3
 -5.070602952616e-04    6  3  4  1
  7.018466092842e-04    6  3  4  2
 -3.459539357830e-04    6  3  4  3
  4.055381168812e-04    6  3  4  4
  1.253988051268e-04    6  3  5  1
 -3.163451436564e-04    6  3  5  2
 -8.494321638789e-04    6  3  5  3
  3.829723542801e-04    6  3  5  4
 -4.944000037749e-04    6  3  5  5
  9.136628997497e-03    6  3  6  3
 -4.067052473998e-05    6  4  1  1
  3.162318670039e-05    6  4  2  1
  1.889452778530e-05    6  4  2  2
 -5.070602952616e-04    6  4  3  1
  7.018466092842e-04    6  4  3  2
 -3.459539357830e-04    6  4  3  3
  3.565682874794e-06    6  4  4  1
 -5.978840274238e-04    6  4  4  2
  4.055381168813e-04    6  4  4  3
  9.212367792163e-04    6  4  4  4
  4.506940509540e-04    6  4  5  1
  5.645927506818e-04    6  4  5  2
  3.829723542803e-04    6  4  5  3
  4.912411313789e-04    6  4  5  4
 -5.535068464785e-04    6  4  5  5
  9.136628997497e-03    6  4  6  4
  2.609918507555e-05    6  5  1  1
  1.112928614423e-06    6  5  2  1
 -6.119105655867e-06    6  5  2  2
  1.253988051268e-04    6  5  3  1
 -3.163451436564e-04    6  5  3  2
 -8.494321638787e-04    6  5  3  3
  4.506940509540e-04    6  5  4  1
  5.645927506818e-04    6  5  4  2
  3.829723542801e-04    6  5  4  3
  4.912411313788e-04    6  5  4  4
  8.535020413561e-04    6  5  5  1
  4.672051636181e-04    6  5  5  2
 -4.944000037750e-04    6  5  5  3
 -5.535068464785e-04    6  5  5  4
  3.382109530806e-04    6  5  5  5
  9.136628997497e-03    6  5  6  5
  3.824484638867e-01    6  6  1  1
  3.824484638867e-01    6  6  2  2
  3.824484638867e-01    6  6  3  3
  3.824484638867e-01    6  6  4  4
  3.824484638867e-01    6  6  5  5
  3.029956948082e-01    6  6  6  6
 -4.404931216935e+00    1  1  0  0
 -4.404931216935e+00    2  2  0  0
 -4.404931216935e+00    3  3  0  0
 -4.404931216935e+00    4  4  0  0
 -4.404931216935e+00    5  5  0  0
 -2.416674648834e+00    6  6  0  0
    -88.446967802236   0  0  0  0
