 &FCI NORB=6 ,NELEC=7 ,MS2=5,
  ORBSYM=1,1,1,1,1,1,
  ISYM=1,
 &END
  8.995756214173e-01    1  1  1  1
 -1.051555479516e-09    2  1  1  1
  4.051841297830e-02    2  1  2  1
  8.341201137960e-01    2  2  1  1
 -1.767617733960e-09    2  2  2  1
  9.353649307596e-01    2  2  2  2
  4.051841297828e-02    3  1  3  1
 -2.356809670258e-08    3  2  3  1
  2.028447516845e-02    3  2  3  2
  8.341201137961e-01    3  3  1  1
  4.536857570722e-08    3  3  2  1
  8.947959804227e-01    3  3  2  2
  9.353649307595e-01    3  3  3  3
  2.502800983128e-02    4  1  4  1
  9.489534370404e-03    4  2  4  1
  3.659985683060e-02    4  2  4  2
 -7.205883442485e-11    4  3  4  1
  3.659987606193e-02    4  3  4  3
  8.634853732773e-01    4  4  1  1
 -1.850480379405e-02    4  4  2  1
  8.591128011101e-01    4  4  2  2
  1.405163358929e-10    4  4  3  1
  8.591127596319e-01    4  4  3  3
  9.282445654524e-01    4  4  4  4
  7.205897226911e-11    5  1  4  2
  9.489505229496e-03    5  1  4  3
  2.502796951975e-02    5  1  5  1
  7.205880728333e-11    5  2  4  1
 -1.636263435632e-02    5  2  4  3
 -9.489510735525e-03    5  2  5  1
  3.659989478420e-02    5  2  5  2
  9.489539876465e-03    5  3  4  1
  1.636261512500e-02    5  3  4  2
  7.205893491222e-11    5  3  5  1
  3.659987555289e-02    5  3  5  3
 -1.405164546678e-10    5  4  2  1
 -1.850478146963e-02    5  4  3  1
  2.073905451819e-08    5  4  3  2
  3.640293635042e-02    5  4  5  4
  8.634854442076e-01    5  5  1  1
  1.850475914515e-02    5  5  2  1
  8.591127087056e-01    5  5  2  2
 -1.405165550442e-10    5  5  3  1
  8.591127501836e-01    5  5  3  3
  8.554386836284e-01    5  5  4  4
  9.282445472061e-01    5  5  5  5
  5.310683452600e-03    6  1  1  1
 -7.227946919562e-09    6  1  2  1
  1.923670028974e-03    6  1  2  2
  1.923670028964e-03    6  1  3  3
  4.002794458422e-03    6  1  4  4
  4.002789882658e-03    6  1  5  5
  9.971749215112e-03    6  1  6  1
 -3.848237519179e-08    6  2  1  1
 -7.241135424862e-04    6  2  2  1
 -3.861336972323e-08    6  2  2  2
 -3.784988325350e-08    6  2  3  3
  5.775286657534e-04    6  2  4  4
  4.385759887062e-12    6  2  5  4
 -5.776026900932e-04    6  2  5  5
 -2.159046855426e-10    6  2  6  1
  9.377851272730e-03    6  2  6  2
 -7.241135424907e-04    6  3  3  1
 -3.817432360404e-10    6  3  3  2
 -4.385917216458e-12    6  3  4  4
  5.775656779269e-04    6  3  5  4
  4.385617568424e-12    6  3  5  5
  9.377851272730e-03    6  3  6  3
  6.689784598515e-04    6  4  4  1
  7.961706061268e-04    6  4  4  2
 -6.045767610300e-12    6  4  4  3
  6.045763984772e-12    6  4  5  2
  7.961721856073e-04    6  4  5  3
  9.269699572063e-03    6  4  6  4
  6.045764703962e-12    6  5  4  2
  7.961744424240e-04    6  5  4  3
  6.689777407917e-04    6  5  5  1
 -7.961760219038e-04    6  5  5  2
  6.045767426330e-12    6  5  5  3
  9.269699417806e-03    6  5  6  5
  4.050520708214e-01    6  6  1  1
 -5.011984726599e-11    6  6  2  1
  4.079796618002e-01    6  6  2  2
  4.079796618002e-01    6  6  3  3
  4.069261881873e-01    6  6  4  4
  4.069261854327e-01    6  6  5  5
 -8.358813086501e-06    6  6  6  1
 -5.669612110424e-09    6  6  6  2
  3.230787284293e-01    6  6  6  6
 -5.477741798146e+00    1  1  0  0
  1.035553331842e-09    2  1  0  0
 -5.555814555007e+00    2  2  0  0
 -5.555814555007e+00    3  3  0  0
 -5.541671926470e+00    4  4  0  0
 -5.541671886287e+00    5  5  0  0
 -1.715548691289e-02    6  1  0  0
  2.008418381295e-07    6  2  0  0
 -2.959828774791e+00    6  6  0  0
   -101.629929388022   0  0  0  0
