#INFO: **** input file is /projects/bamu3429/BENCHMARK/fresh_atoms/MRPT/vqz/atoms/Fe_1/mrpt.py ****
import json
from pyscf import gto,scf,mcscf, fci, lo, ci, cc
from pyscf.scf import ROHF, UHF,ROKS
import numpy as np
import pandas as pd

# THIS IS WERE IT STARTS ====================================

df=json.load(open("../../../trail.json"))

spins={'Sc':1, 'Ti':2, 'V':3, 'Cr':6, 'Mn':5, 'Fe':4, 'Cu':1}

nd={'Sc':(1,0), 'Ti':(2,0), 'V':(3,0), 'Cr':(5,0), 'Mn':(5,0), 'Fe':(5,1), 'Cu':(5,5)}

cas={'Sc':3, 'Ti':4, 'V':5, 'Cr':6, 'Mn':7, 'Fe':8, 'Cu':11}

datacsv={}
for nm in ['atom','charge','method','basis','pseudopotential','hf',
           'totalenergy','totalenergy-stocherr','totalenergy-syserr']:
  datacsv[nm]=[]

basis='vqz'
el='Fe'
charge=1

mol=gto.Mole()
mol.ecp={}
mol.basis={}
mol.ecp[el]=gto.basis.parse_ecp(df[el]['ecp'])
mol.basis[el]=gto.basis.parse(df[el][basis])
mol.charge=charge
if el == 'Cr' or el == 'Cu':
  mol.spin=spins[el]-charge
else:
  mol.spin=spins[el]+charge
mol.build(atom="%s 0. 0. 0."%el,verbose=4)

m=ROHF(mol)
m.level_shift=1000.0
dm=m.from_chk("../../../../HF/atoms/"+el+basis+str(charge)+".chk")
hf=m.kernel(dm)
m.analyze()

from pyscf.shciscf import shci
mc = shci.SHCISCF(m, 6, cas[el]-charge)
#mc.fcisolver.conv_tol = 1e-14
mc.fcisolver.mpiprefix="srun -n20"
mc.fcisolver.num_thrds=12
mc.verbose = 4
cas=mc.kernel()[0]
 
from pyscf.icmpspt import icmpspt
pt=icmpspt.icmpspt(mc,rdmM=500, PTM=1000,\
                          pttype="MRLCC",\
                          third_order=True,\
                          fully_ic=True,\
                          do_dm4=True)

datacsv['atom'].append(el)
datacsv['charge'].append(charge)
datacsv['method'].append('MRPT')
datacsv['basis'].append(basis)
datacsv['pseudopotential'].append('trail')
datacsv['hf'].append(hf)
datacsv['totalenergy'].append(cas+pt)
datacsv['totalenergy-stocherr'].append(0.0)
datacsv['totalenergy-syserr'].append(0.0)
pd.DataFrame(datacsv).to_csv(el+".csv",index=False)

#INFO: ******************** input file end ********************


System: ('Linux', 'bnode0302.rc.int.colorado.edu', '3.10.0-514.41.1.el7.x86_64', '#1 SMP Wed Jan 17 10:26:16 EST 2018', 'x86_64', 'x86_64')  Threads 28
Python 2.7.11 (default, Mar 22 2016, 01:42:54) 
[GCC Intel(R) C++ gcc 4.8 mode]
numpy 1.11.1  scipy 0.17.1
Date: Thu Apr 19 10:53:17 2018
PySCF version 1.4.6
PySCF path  /projects/bamu3429/softwares/pyscf_uptodate/pyscf
GIT ORIG_HEAD f3591ef22170896a4cdc2aadaa6f5da388ffcadb
GIT HEAD      ref: refs/heads/master
GIT master branch  1847583fb1d2472321833d3c71c8b7008e5fabf5

[INPUT] VERBOSE 4
[INPUT] num atoms = 1
[INPUT] num electrons = 15
[INPUT] charge = 1
[INPUT] spin (= nelec alpha-beta = 2S) = 5
[INPUT] symmetry False subgroup None
[INPUT]  1 Fe     0.000000000000   0.000000000000   0.000000000000 AA    0.000000000000   0.000000000000   0.000000000000 Bohr
[INPUT] ---------------- BASIS SET ---------------- 
[INPUT] l, kappa, [nprim/nctr], expnt,             c_1 c_2 ...
[INPUT] Fe
[INPUT] 0    0    [12   /1   ]  41.79315189       0.013363
                                21.4479766        -0.225831
                                13.50597996       1.092302
                                9.47978339        -1.379238
                                4.48116767        0.183004
                                2.00533715        0.377557
                                1.21557711        0.591529
                                0.52042955        0.236703
                                0.24120153        -0.029854
                                0.11142434        0.02048
                                0.05213724        -0.006828
                                0.02419858        0.002604
[INPUT] 0    0    [12   /1   ]  41.79315189       -0.002034
                                21.4479766        0.04181
                                13.50597996       -0.22265
                                9.47978339        0.296462
                                4.48116767        -0.039261
                                2.00533715        -0.090727
                                1.21557711        -0.230375
                                0.52042955        -0.197211
                                0.24120153        0.111234
                                0.11142434        0.439139
                                0.05213724        0.516418
                                0.02419858        0.126845
[INPUT] 0    0    [12   /1   ]  41.79315189       -0.004837
                                21.4479766        0.142209
                                13.50597996       -0.903454
                                9.47978339        1.370339
                                4.48116767        -0.409377
                                2.00533715        -1.287567
                                1.21557711        0.205595
                                0.52042955        0.603911
                                0.24120153        0.738131
                                0.11142434        0.144644
                                0.05213724        -0.563073
                                0.02419858        -0.31909
[INPUT] 0    0    [12   /1   ]  41.79315189       -0.003884
                                21.4479766        0.166254
                                13.50597996       -1.213665
                                9.47978339        2.033455
                                4.48116767        -1.02974
                                2.00533715        -2.334822
                                1.21557711        2.086971
                                0.52042955        1.379229
                                0.24120153        -1.184835
                                0.11142434        -0.997257
                                0.05213724        0.546401
                                0.02419858        0.59844
[INPUT] 0    0    [12   /1   ]  41.79315189       -0.002831
                                21.4479766        -0.1658
                                13.50597996       1.74845
                                9.47978339        -3.545105
                                4.48116767        3.817957
                                2.00533715        0.21218
                                1.21557711        -4.041249
                                0.52042955        2.619566
                                0.24120153        1.026746
                                0.11142434        -2.118211
                                0.05213724        0.042195
                                0.02419858        0.853187
[INPUT] 0    0    [1    /1   ]  0.02419858           1
[INPUT] 0    0    [1    /1   ]  0.01123134           1
[INPUT] 1    0    [12   /1   ]  66.19105244       0.00032
                                34.58074578       -0.003142
                                17.77781378       0.029707
                                9.38371315        -0.152873
                                5.85185491        0.094627
                                3.39352009        0.227547
                                1.80084269        0.448024
                                0.88349057        0.318306
                                0.45376195        0.097682
                                0.18864625        0.012314
                                0.07756623        -0.001004
                                0.03189313        0.000474
[INPUT] 1    0    [12   /1   ]  66.19105244       -1.8e-05
                                34.58074578       0.000416
                                17.77781378       -0.005911
                                9.38371315        0.03555
                                5.85185491        -0.025962
                                3.39352009        -0.059781
                                1.80084269        -0.122371
                                0.88349057        -0.102075
                                0.45376195        0.039881
                                0.18864625        0.346137
                                0.07756623        0.528115
                                0.03189313        0.237416
[INPUT] 1    0    [12   /1   ]  66.19105244       -0.000757
                                34.58074578       0.002198
                                17.77781378       0.018471
                                9.38371315        -0.223198
                                5.85185491        0.199379
                                3.39352009        0.827171
                                1.80084269        0.013075
                                0.88349057        -0.896886
                                0.45376195        -0.312811
                                0.18864625        0.644499
                                0.07756623        0.378067
                                0.03189313        0.003975
[INPUT] 1    0    [12   /1   ]  66.19105244       -0.001362
                                34.58074578       0.004899
                                17.77781378       0.030086
                                9.38371315        -0.547347
                                5.85185491        1.144321
                                3.39352009        0.837657
                                1.80084269        -1.666445
                                0.88349057        -0.541803
                                0.45376195        1.568452
                                0.18864625        -0.154076
                                0.07756623        -0.636056
                                0.03189313        0.003625
[INPUT] 1    0    [12   /1   ]  66.19105244       -0.007466
                                34.58074578       0.041225
                                17.77781378       -0.113823
                                9.38371315        -0.593972
                                5.85185491        3.090393
                                3.39352009        -2.298941
                                1.80084269        -1.325372
                                0.88349057        2.843762
                                0.45376195        -1.264441
                                0.18864625        -0.765375
                                0.07756623        0.899235
                                0.03189313        -0.013792
[INPUT] 1    0    [1    /1   ]  0.03189313           1
[INPUT] 1    0    [1    /1   ]  0.01311358           1
[INPUT] 2    0    [10   /1   ]  58.21685909       0.000311
                                24.96806153       -0.010386
                                12.44413704       0.126915
                                5.48395408        0.166806
                                2.79137309        0.262721
                                1.34407118        0.316542
                                0.61230651        0.280074
                                0.27095461        0.158069
                                0.12811374        0.049028
                                0.05904405        0.008369
[INPUT] 2    0    [10   /1   ]  58.21685909       0.000385
                                24.96806153       0.007345
                                12.44413704       -0.129376
                                5.48395408        -0.235095
                                2.79137309        -0.387916
                                1.34407118        -0.056421
                                0.61230651        0.34416
                                0.27095461        0.401431
                                0.12811374        0.201425
                                0.05904405        0.045061
[INPUT] 2    0    [10   /1   ]  58.21685909       -0.002018
                                24.96806153       0.001015
                                12.44413704       0.127448
                                5.48395408        0.457991
                                2.79137309        0.230218
                                1.34407118        -0.694956
                                0.61230651        -0.373723
                                0.27095461        0.35233
                                0.12811374        0.420337
                                0.05904405        0.109669
[INPUT] 2    0    [10   /1   ]  58.21685909       -5.7e-05
                                24.96806153       -0.016008
                                12.44413704       0.319947
                                5.48395408        0.834009
                                2.79137309        -1.01955
                                1.34407118        -0.489125
                                0.61230651        0.956701
                                0.27095461        0.060729
                                0.12811374        -0.501922
                                0.05904405        -0.152504
[INPUT] 2    0    [1    /1   ]  0.05904405           1
[INPUT] 2    0    [1    /1   ]  0.02721175           1
[INPUT] 3    0    [1    /1   ]  4.808419             1
[INPUT] 3    0    [1    /1   ]  1.639843             1
[INPUT] 3    0    [1    /1   ]  0.559243             1
[INPUT] 3    0    [1    /1   ]  0.19072114           1
[INPUT] 4    0    [1    /1   ]  4.604195             1
[INPUT] 4    0    [1    /1   ]  1.569312             1
[INPUT] 4    0    [1    /1   ]  0.53489048           1
[INPUT] 5    0    [1    /1   ]  3.877747             1
[INPUT] 5    0    [1    /1   ]  1.32170656           1
nuclear repulsion = 0
number of shells = 29
number of NR pGTOs = 535
number of NR cGTOs = 135
basis = {'Fe': [[0, [41.79315189, 0.013363], [21.4479766, -0.225831], [13.50597996, 1.092302], [9.47978339, -1.379238], [4.48116767, 0.183004], [2.00533715, 0.377557], [1.21557711, 0.591529], [0.52042955, 0.236703], [0.24120153, -0.029854], [0.11142434, 0.02048], [0.05213724, -0.006828], [0.02419858, 0.002604]], [0, [41.79315189, -0.002034], [21.4479766, 0.04181], [13.50597996, -0.22265], [9.47978339, 0.296462], [4.48116767, -0.039261], [2.00533715, -0.090727], [1.21557711, -0.230375], [0.52042955, -0.197211], [0.24120153, 0.111234], [0.11142434, 0.439139], [0.05213724, 0.516418], [0.02419858, 0.126845]], [0, [41.79315189, -0.004837], [21.4479766, 0.142209], [13.50597996, -0.903454], [9.47978339, 1.370339], [4.48116767, -0.409377], [2.00533715, -1.287567], [1.21557711, 0.205595], [0.52042955, 0.603911], [0.24120153, 0.738131], [0.11142434, 0.144644], [0.05213724, -0.563073], [0.02419858, -0.31909]], [0, [41.79315189, -0.003884], [21.4479766, 0.166254], [13.50597996, -1.213665], [9.47978339, 2.033455], [4.48116767, -1.02974], [2.00533715, -2.334822], [1.21557711, 2.086971], [0.52042955, 1.379229], [0.24120153, -1.184835], [0.11142434, -0.997257], [0.05213724, 0.546401], [0.02419858, 0.59844]], [0, [41.79315189, -0.002831], [21.4479766, -0.1658], [13.50597996, 1.74845], [9.47978339, -3.545105], [4.48116767, 3.817957], [2.00533715, 0.21218], [1.21557711, -4.041249], [0.52042955, 2.619566], [0.24120153, 1.026746], [0.11142434, -2.118211], [0.05213724, 0.042195], [0.02419858, 0.853187]], [0, [0.02419858, 1.0]], [0, [0.01123134, 1.0]], [1, [66.19105244, 0.00032], [34.58074578, -0.003142], [17.77781378, 0.029707], [9.38371315, -0.152873], [5.85185491, 0.094627], [3.39352009, 0.227547], [1.80084269, 0.448024], [0.88349057, 0.318306], [0.45376195, 0.097682], [0.18864625, 0.012314], [0.07756623, -0.001004], [0.03189313, 0.000474]], [1, [66.19105244, -1.8e-05], [34.58074578, 0.000416], [17.77781378, -0.005911], [9.38371315, 0.03555], [5.85185491, -0.025962], [3.39352009, -0.059781], [1.80084269, -0.122371], [0.88349057, -0.102075], [0.45376195, 0.039881], [0.18864625, 0.346137], [0.07756623, 0.528115], [0.03189313, 0.237416]], [1, [66.19105244, -0.000757], [34.58074578, 0.002198], [17.77781378, 0.018471], [9.38371315, -0.223198], [5.85185491, 0.199379], [3.39352009, 0.827171], [1.80084269, 0.013075], [0.88349057, -0.896886], [0.45376195, -0.312811], [0.18864625, 0.644499], [0.07756623, 0.378067], [0.03189313, 0.003975]], [1, [66.19105244, -0.001362], [34.58074578, 0.004899], [17.77781378, 0.030086], [9.38371315, -0.547347], [5.85185491, 1.144321], [3.39352009, 0.837657], [1.80084269, -1.666445], [0.88349057, -0.541803], [0.45376195, 1.568452], [0.18864625, -0.154076], [0.07756623, -0.636056], [0.03189313, 0.003625]], [1, [66.19105244, -0.007466], [34.58074578, 0.041225], [17.77781378, -0.113823], [9.38371315, -0.593972], [5.85185491, 3.090393], [3.39352009, -2.298941], [1.80084269, -1.325372], [0.88349057, 2.843762], [0.45376195, -1.264441], [0.18864625, -0.765375], [0.07756623, 0.899235], [0.03189313, -0.013792]], [1, [0.03189313, 1.0]], [1, [0.01311358, 1.0]], [2, [58.21685909, 0.000311], [24.96806153, -0.010386], [12.44413704, 0.126915], [5.48395408, 0.166806], [2.79137309, 0.262721], [1.34407118, 0.316542], [0.61230651, 0.280074], [0.27095461, 0.158069], [0.12811374, 0.049028], [0.05904405, 0.008369]], [2, [58.21685909, 0.000385], [24.96806153, 0.007345], [12.44413704, -0.129376], [5.48395408, -0.235095], [2.79137309, -0.387916], [1.34407118, -0.056421], [0.61230651, 0.34416], [0.27095461, 0.401431], [0.12811374, 0.201425], [0.05904405, 0.045061]], [2, [58.21685909, -0.002018], [24.96806153, 0.001015], [12.44413704, 0.127448], [5.48395408, 0.457991], [2.79137309, 0.230218], [1.34407118, -0.694956], [0.61230651, -0.373723], [0.27095461, 0.35233], [0.12811374, 0.420337], [0.05904405, 0.109669]], [2, [58.21685909, -5.7e-05], [24.96806153, -0.016008], [12.44413704, 0.319947], [5.48395408, 0.834009], [2.79137309, -1.01955], [1.34407118, -0.489125], [0.61230651, 0.956701], [0.27095461, 0.060729], [0.12811374, -0.501922], [0.05904405, -0.152504]], [2, [0.05904405, 1.0]], [2, [0.02721175, 1.0]], [3, [4.808419, 1.0]], [3, [1.639843, 1.0]], [3, [0.559243, 1.0]], [3, [0.19072114, 1.0]], [4, [4.604195, 1.0]], [4, [1.569312, 1.0]], [4, [0.53489048, 1.0]], [5, [3.877747, 1.0]], [5, [1.32170656, 1.0]]]}
ecp = {'Fe': [10, [[-1, [[], [[16.90683491, 16.0]], [[18.40258134, 26847.81569895], [6.30300831, -133.54888707], [18.42848726, -26765.4049232], [18.43432023, 1.00742417]], [[7.01300654, 270.50935856]]]], [0, [[], [], [[9.62463353, 20308.8999348], [9.1270955, -17595.21707731], [7.5416384, 1884.69012383], [12.70900949, -4483.50209856], [8.14863339, -1094.38597968], [16.27611739, 1032.95376659]], []]], [1, [[], [], [[11.36514719, -905.00711112], [14.56762424, 34640.9358259], [15.05861359, -42299.94223895], [17.41337089, 10633.68808757], [18.3746752, -5844.19723669], [17.04734437, 3803.80414779]], []]], [2, [[], [], [[10.13935738, -11031.18647055], [13.45796076, 16711.37502047], [10.97387824, 37989.95033676], [11.92919033, -41782.92514683], [17.7123012, 3812.58339812], [17.32108913, -5718.00854971]], []]]]]}
CPU time:         3.56


******** <class 'pyscf.scf.rohf.ROHF'> flags ********
method = ROHF
initial guess = minao
damping factor = 0
level shift factor = 1000.0
DIIS = <class 'pyscf.scf.diis.CDIIS'>
DIIS start cycle = 1
DIIS space = 8
SCF tol = 1e-09
SCF gradient tol = None
max. SCF cycles = 50
direct_scf = True
direct_scf_tol = 1e-13
chkfile to save SCF result = /rc_scratch/bamu3429/tmpsk9HTy
max_memory 4000 MB (current use 184 MB)
num. doubly occ = 5  num. singly occ = 5
Set gradient conv threshold to 3.16228e-05
init E= -122.805062018562
  HOMO = 499.613007092615  LUMO = 999.853298237758
cycle= 1 E= -122.805062018562  delta_E= 1.56e-13  |g|= 4.54e-06  |ddm|= 1.31e-08
  HOMO = -0.386992907331153  LUMO = -0.146701762193022
Extra cycle  E= -122.805062018566  delta_E= -4.62e-12  |g|= 5.35e-07  |ddm|= 3.51e-06
converged SCF energy = -122.805062018566
**** MO energy ****
                Roothaan           | alpha              | beta
MO #1   energy= -4.71512331336348  | -4.90919632055793  | -4.52105030837648  occ= 2
MO #2   energy= -3.09866810518122  | -3.35236803355017  | -2.84496817681226  occ= 2
MO #3   energy= -3.09866808887592  | -3.35236783927376  | -2.84496833847809  occ= 2
MO #4   energy= -3.09130471790166  | -3.27465321991697  | -2.90795621588633  occ= 2
MO #5   energy= -0.84843546623625  | -0.918967746497343 | -0.777903185764841 occ= 2
MO #6   energy= -0.490840228682296 | -1.00995378711925  | 0.0282732682893575 occ= 1
MO #7   energy= -0.490840228682266 | -1.00995378711912  | 0.0282732682893397 occ= 1
MO #8   energy= -0.454452762057275 | -0.978011107290537 | 0.0691057088214546 occ= 1
MO #9   energy= -0.454452672356941 | -0.97801102707091  | 0.069105807984361  occ= 1
MO #10  energy= -0.386992907331153 | -0.567179787506338 | -0.206805982910801 occ= 1
MO #11  energy= -0.146701762193022 | -0.174526598328984 | -0.118876926057052 occ= 0
MO #12  energy= -0.146701749854454 | -0.174526576084431 | -0.118876923624475 occ= 0
MO #13  energy= -0.141839863137937 | -0.165998190502139 | -0.117681535773732 occ= 0
MO #14  energy= -0.0846485378365239 | -0.087148225454027 | -0.0821488627145971 occ= 0
MO #15  energy= -0.0553684374467075 | -0.0605513843006746 | -0.0501854905927404 occ= 0
MO #16  energy= -0.0553684346466489 | -0.0605513805054356 | -0.050185488787866 occ= 0
MO #17  energy= -0.054224127238082 | -0.0590346136202769 | -0.0494136408558821 occ= 0
MO #18  energy= -0.0462456964852679 | -0.0481235591957516 | -0.0443678325730545 occ= 0
MO #19  energy= -0.0462456964851993 | -0.0481235591957439 | -0.0443678325731867 occ= 0
MO #20  energy= -0.0456347614712541 | -0.0468941255468444 | -0.044375396930426 occ= 0
MO #21  energy= -0.0455597154557872 | -0.0473816546259389 | -0.0437377824556477 occ= 0
MO #22  energy= -0.0455597138004947 | -0.0473816528347683 | -0.0437377809353551 occ= 0
MO #23  energy= 0.030582423468522  | 0.0205665551921573 | 0.0405982703105794 occ= 0
MO #24  energy= 0.0652694336065623 | 0.0460609937612855 | 0.0844778734518387 occ= 0
MO #25  energy= 0.0652694448131713 | 0.046061009212542  | 0.0844778804137949 occ= 0
MO #26  energy= 0.0698763263925505 | 0.0523051504026432 | 0.0874475023824547 occ= 0
MO #27  energy= 0.0716519154633831 | 0.0627730967537826 | 0.0805307504353702 occ= 0
MO #28  energy= 0.0716519154634367 | 0.0627730967537963 | 0.0805307504352828 occ= 0
MO #29  energy= 0.0726291012902276 | 0.067018339163836  | 0.0782398647308482 occ= 0
MO #30  energy= 0.0738645763223049 | 0.0649416143533975 | 0.0827875272033978 occ= 0
MO #31  energy= 0.0738645817898291 | 0.064941619722791  | 0.0827875327726984 occ= 0
MO #32  energy= 0.438110766153824  | 0.418909256582051  | 0.457312266419374  occ= 0
MO #33  energy= 0.470218503493633  | 0.456996086313076  | 0.483440920674195  occ= 0
MO #34  energy= 0.470218503493641  | 0.456996086313078  | 0.483440920674197  occ= 0
MO #35  energy= 0.473056831653689  | 0.459624214311999  | 0.486489448995391  occ= 0
MO #36  energy= 0.473056831653712  | 0.459624214312001  | 0.486489448995415  occ= 0
MO #37  energy= 0.474635651320692  | 0.463044354081642  | 0.486226948559746  occ= 0
MO #38  energy= 0.474635659387997  | 0.463044363876015  | 0.486226954899984  occ= 0
MO #39  energy= 0.475115556940681  | 0.464447108301898  | 0.485784005579464  occ= 0
MO #40  energy= 0.636833123698728  | 0.613817845683665  | 0.659848406218501  occ= 0
MO #41  energy= 0.638727677324919  | 0.587868783670791  | 0.689586600930003  occ= 0
MO #42  energy= 0.63872767732496   | 0.587868783670887  | 0.689586600930105  occ= 0
MO #43  energy= 0.650183552390291  | 0.597847624130362  | 0.702519403269424  occ= 0
MO #44  energy= 0.650183581113327  | 0.597847649310066  | 0.702519435546568  occ= 0
MO #45  energy= 1.12480173306655   | 1.07492968524606   | 1.17467378088705   occ= 0
MO #46  energy= 1.12480177907974   | 1.07492975589239   | 1.17467380226709   occ= 0
MO #47  energy= 1.14333656560617   | 1.10288378706313   | 1.1837893441492    occ= 0
MO #48  energy= 1.86538847333395   | 1.81292579481453   | 1.91785115185339   occ= 0
MO #49  energy= 1.86538847333395   | 1.81292579481452   | 1.91785115185338   occ= 0
MO #50  energy= 1.8746660588008    | 1.84230741378224   | 1.90702470381935   occ= 0
MO #51  energy= 1.87519699165481   | 1.81969677920895   | 1.93069720410066   occ= 0
MO #52  energy= 1.87519699165507   | 1.81969677922178   | 1.93069720408837   occ= 0
MO #53  energy= 1.87560319461397   | 1.83559623661255   | 1.91561015261538   occ= 0
MO #54  energy= 1.87560321701405   | 1.83559627048534   | 1.91561016354275   occ= 0
MO #55  energy= 2.2095322654838    | 2.18961958233996   | 2.22944494862765   occ= 0
MO #56  energy= 2.20953226548383   | 2.18961958233998   | 2.22944494862768   occ= 0
MO #57  energy= 2.21379330589884   | 2.19271450072748   | 2.2348721110702    occ= 0
MO #58  energy= 2.21379330589884   | 2.19271450072748   | 2.23487211107021   occ= 0
MO #59  energy= 2.21956898885312   | 2.20073498854082   | 2.23840298952662   occ= 0
MO #60  energy= 2.21956898885313   | 2.20073498854084   | 2.23840298952666   occ= 0
MO #61  energy= 2.22412808570811   | 2.20776624871216   | 2.24048992240781   occ= 0
MO #62  energy= 2.22412810734902   | 2.20776627371522   | 2.24048994068666   occ= 0
MO #63  energy= 2.22570117441772   | 2.21051079949571   | 2.24089154877521   occ= 0
MO #64  energy= 2.23491287859862   | 2.18580324240297   | 2.28402251377734   occ= 0
MO #65  energy= 3.2358841997433    | 3.14533603169913   | 3.32643238192481   occ= 0
MO #66  energy= 3.23588419974335   | 3.14533603169915   | 3.32643238192484   occ= 0
MO #67  energy= 3.24261494321672   | 3.20813428528297   | 3.2770955980101    occ= 0
MO #68  energy= 3.259729748215     | 3.16683516020957   | 3.35262430815292   occ= 0
MO #69  energy= 3.25972980764562   | 3.16683521402072   | 3.35262437320533   occ= 0
MO #70  energy= 4.96729960466764   | 4.90517836295905   | 5.02942084637623   occ= 0
MO #71  energy= 4.96729969295325   | 4.90517848747471   | 5.02942089843179   occ= 0
MO #72  energy= 5.00212767659288   | 4.95404869939224   | 5.0502066537935    occ= 0
MO #73  energy= 5.42346991147227   | 5.31267071263132   | 5.53426911031326   occ= 0
MO #74  energy= 5.42346991147228   | 5.3126707126313    | 5.53426911031325   occ= 0
MO #75  energy= 5.44241471072393   | 5.32423629886726   | 5.56059312258059   occ= 0
MO #76  energy= 5.44241471072463   | 5.32423629882636   | 5.56059312262289   occ= 0
MO #77  energy= 5.44328644288078   | 5.37962613310075   | 5.50694675266082   occ= 0
MO #78  energy= 5.44413085494668   | 5.36241639328902   | 5.52584531660436   occ= 0
MO #79  energy= 5.44413089957096   | 5.36241646546832   | 5.52584533367363   occ= 0
MO #80  energy= 7.14474084734501   | 7.1180783356891    | 7.17140335900094   occ= 0
MO #81  energy= 7.14474084734502   | 7.1180783356891    | 7.17140335900094   occ= 0
MO #82  energy= 7.14871420940639   | 7.11946914719327   | 7.17795927161952   occ= 0
MO #83  energy= 7.14871420940639   | 7.11946914719327   | 7.17795927161951   occ= 0
MO #84  energy= 7.15863667232317   | 7.13149579314492   | 7.18577755150143   occ= 0
MO #85  energy= 7.15863667232317   | 7.13149579314492   | 7.18577755150143   occ= 0
MO #86  energy= 7.16941643200417   | 7.14589289500494   | 7.19293996900339   occ= 0
MO #87  energy= 7.16941643200426   | 7.14589289500503   | 7.19293996900351   occ= 0
MO #88  energy= 7.17738126730172   | 7.15688673176242   | 7.19787580284103   occ= 0
MO #89  energy= 7.17738131053308   | 7.15688678024901   | 7.19787584081716   occ= 0
MO #90  energy= 7.18028840206146   | 7.16094886505606   | 7.19962793906688   occ= 0
MO #91  energy= 7.27437023856362   | 7.22055351502322   | 7.32818696210402   occ= 0
MO #92  energy= 7.27437023856365   | 7.22055351502324   | 7.32818696210405   occ= 0
MO #93  energy= 7.2834718027258    | 7.22466113962681   | 7.3422824658248    occ= 0
MO #94  energy= 7.28347180272581   | 7.22466113962682   | 7.34228246582481   occ= 0
MO #95  energy= 7.29705252634827   | 7.24717157328489   | 7.34693347972811   occ= 0
MO #96  energy= 7.29705252634832   | 7.24717157328492   | 7.34693347972821   occ= 0
MO #97  energy= 7.30800333258947   | 7.26815629572476   | 7.34785036844831   occ= 0
MO #98  energy= 7.30800338243049   | 7.26815635819955   | 7.34785040565594   occ= 0
MO #99  energy= 7.31214471281211   | 7.27630450983888   | 7.34798491239012   occ= 0
MO #100 energy= 9.97036422542625   | 9.90424716192678   | 10.0364812893794   occ= 0
MO #101 energy= 10.292958582103    | 10.2171639890496   | 10.3687531744528   occ= 0
MO #102 energy= 10.292958582103    | 10.2171639890496   | 10.3687531744528   occ= 0
MO #103 energy= 10.3202111324234   | 10.2426826749023   | 10.3977395883551   occ= 0
MO #104 energy= 10.3202112000449   | 10.2426827381709   | 10.3977396603296   occ= 0
MO #105 energy= 10.3234718956111   | 10.292687911305    | 10.3542558799366   occ= 0
MO #106 energy= 15.3319754230089   | 15.2275653974521   | 15.4363854485657   occ= 0
MO #107 energy= 15.3319754230089   | 15.2275653974521   | 15.4363854485657   occ= 0
MO #108 energy= 15.353252000179    | 15.2416169750349   | 15.4648870253232   occ= 0
MO #109 energy= 15.353252000179    | 15.2416169750347   | 15.4648870253233   occ= 0
MO #110 energy= 15.3663942338844   | 15.2878995068274   | 15.4448889609416   occ= 0
MO #111 energy= 15.3663942976111   | 15.2878995963093   | 15.4448889989129   occ= 0
MO #112 energy= 15.3707997859973   | 15.3095240483339   | 15.4320755236606   occ= 0
MO #113 energy= 15.5739757189675   | 15.5099038261927   | 15.6380476117423   occ= 0
MO #114 energy= 15.5739758248349   | 15.5099039696693   | 15.6380476800005   occ= 0
MO #115 energy= 15.6164131369629   | 15.5675057897034   | 15.6653204842224   occ= 0
MO #116 energy= 20.7981763076277   | 20.7217154544839   | 20.8746371607714   occ= 0
MO #117 energy= 20.7981763076277   | 20.721715454484    | 20.8746371607715   occ= 0
MO #118 energy= 20.8102022121298   | 20.7266908429217   | 20.893713581338    occ= 0
MO #119 energy= 20.8102022121298   | 20.7266908429217   | 20.893713581338    occ= 0
MO #120 energy= 20.8303734160738   | 20.7594031647617   | 20.9013436673247   occ= 0
MO #121 energy= 20.8303734160739   | 20.7594031647618   | 20.9013436673249   occ= 0
MO #122 energy= 20.8471022995249   | 20.7904345003281   | 20.9037700986737   occ= 0
MO #123 energy= 20.8471023710855   | 20.7904345900614   | 20.9037701520618   occ= 0
MO #124 energy= 20.8534640171885   | 20.8026408207607   | 20.9042872159639   occ= 0
MO #125 energy= 22.2337968152418   | 22.1817867469081   | 22.2858068835755   occ= 0
MO #126 energy= 22.2337968152418   | 22.1817867469081   | 22.2858068835755   occ= 0
MO #127 energy= 22.2390338374545   | 22.1816273643933   | 22.2964403105157   occ= 0
MO #128 energy= 22.2390338374545   | 22.1816273643933   | 22.2964403105157   occ= 0
MO #129 energy= 22.255934999412    | 22.2029688024667   | 22.3089011963573   occ= 0
MO #130 energy= 22.255934999412    | 22.2029688024667   | 22.3089011963574   occ= 0
MO #131 energy= 22.2749084768652   | 22.2295826029615   | 22.3202343507688   occ= 0
MO #132 energy= 22.2749084768653   | 22.2295826029617   | 22.320234350769    occ= 0
MO #133 energy= 22.289076651626    | 22.2501140916005   | 22.3280392116516   occ= 0
MO #134 energy= 22.2890767244584   | 22.2501141760473   | 22.3280392728696   occ= 0
MO #135 energy= 22.2942668093424   | 22.2577225698984   | 22.3308110487865   occ= 0
 ** Mulliken pop on meta-lowdin orthogonal AOs  **
 ** Mulliken pop  **
pop of  0Fe 3s        1.99996
pop of  0Fe 4s        0.95402
pop of  0Fe 5s        0.02679
pop of  0Fe 6s        0.00887
pop of  0Fe 7s        0.00013
pop of  0Fe 8s        0.00594
pop of  0Fe 9s        0.00395
pop of  0Fe 3px       1.99978
pop of  0Fe 3py       1.99978
pop of  0Fe 3pz       1.99991
pop of  0Fe 4px       0.00011
pop of  0Fe 4py       0.00011
pop of  0Fe 4pz       0.00005
pop of  0Fe 5px       0.00001
pop of  0Fe 5py       0.00001
pop of  0Fe 5pz       0.00000
pop of  0Fe 6px       0.00001
pop of  0Fe 6py       0.00001
pop of  0Fe 6pz       0.00000
pop of  0Fe 7px       0.00000
pop of  0Fe 7py       0.00000
pop of  0Fe 7pz       0.00000
pop of  0Fe 8px       0.00000
pop of  0Fe 8py       0.00000
pop of  0Fe 8pz       0.00000
pop of  0Fe 9px       0.00000
pop of  0Fe 9py       0.00000
pop of  0Fe 9pz       0.00000
pop of  0Fe 3dxy      0.99625
pop of  0Fe 3dyz      0.99711
pop of  0Fe 3dz^2     1.99906
pop of  0Fe 3dxz      0.99711
pop of  0Fe 3dx2-y2    0.99625
pop of  0Fe 4dxy      0.00270
pop of  0Fe 4dyz      0.00199
pop of  0Fe 4dz^2     0.00059
pop of  0Fe 4dxz      0.00199
pop of  0Fe 4dx2-y2    0.00270
pop of  0Fe 5dxy      0.00042
pop of  0Fe 5dyz      0.00034
pop of  0Fe 5dz^2     0.00020
pop of  0Fe 5dxz      0.00034
pop of  0Fe 5dx2-y2    0.00042
pop of  0Fe 6dxy      0.00002
pop of  0Fe 6dyz      0.00002
pop of  0Fe 6dz^2     0.00005
pop of  0Fe 6dxz      0.00002
pop of  0Fe 6dx2-y2    0.00002
pop of  0Fe 7dxy      0.00057
pop of  0Fe 7dyz      0.00049
pop of  0Fe 7dz^2     0.00037
pop of  0Fe 7dxz      0.00049
pop of  0Fe 7dx2-y2    0.00057
pop of  0Fe 8dxy      0.00004
pop of  0Fe 8dyz      0.00003
pop of  0Fe 8dz^2     0.00003
pop of  0Fe 8dxz      0.00003
pop of  0Fe 8dx2-y2    0.00004
pop of  0Fe 4fy^3     0.00000
pop of  0Fe 4fxyz     0.00000
pop of  0Fe 4fyz^2    0.00002
pop of  0Fe 4fz^3     0.00000
pop of  0Fe 4fxz^2    0.00002
pop of  0Fe 4fzx^2    0.00000
pop of  0Fe 4fx^3     0.00000
pop of  0Fe 5fy^3     0.00000
pop of  0Fe 5fxyz     0.00000
pop of  0Fe 5fyz^2    0.00005
pop of  0Fe 5fz^3     0.00001
pop of  0Fe 5fxz^2    0.00005
pop of  0Fe 5fzx^2    0.00000
pop of  0Fe 5fx^3     0.00000
pop of  0Fe 6fy^3     0.00000
pop of  0Fe 6fxyz     0.00000
pop of  0Fe 6fyz^2    0.00002
pop of  0Fe 6fz^3     0.00002
pop of  0Fe 6fxz^2    0.00002
pop of  0Fe 6fzx^2    0.00000
pop of  0Fe 6fx^3     0.00000
pop of  0Fe 7fy^3     0.00000
pop of  0Fe 7fxyz     0.00000
pop of  0Fe 7fyz^2    0.00000
pop of  0Fe 7fz^3     0.00000
pop of  0Fe 7fxz^2    0.00000
pop of  0Fe 7fzx^2    0.00000
pop of  0Fe 7fx^3     0.00000
pop of  0Fe 5g-4      0.00000
pop of  0Fe 5g-3      0.00000
pop of  0Fe 5g-2      0.00000
pop of  0Fe 5g-1      0.00001
pop of  0Fe 5g 0      0.00000
pop of  0Fe 5g 1      0.00001
pop of  0Fe 5g 2      0.00000
pop of  0Fe 5g 3      0.00000
pop of  0Fe 5g 4      0.00000
pop of  0Fe 6g-4      0.00000
pop of  0Fe 6g-3      0.00000
pop of  0Fe 6g-2      0.00000
pop of  0Fe 6g-1      0.00001
pop of  0Fe 6g 0      0.00001
pop of  0Fe 6g 1      0.00001
pop of  0Fe 6g 2      0.00000
pop of  0Fe 6g 3      0.00000
pop of  0Fe 6g 4      0.00000
pop of  0Fe 7g-4      0.00000
pop of  0Fe 7g-3      0.00000
pop of  0Fe 7g-2      0.00000
pop of  0Fe 7g-1      0.00001
pop of  0Fe 7g 0      0.00001
pop of  0Fe 7g 1      0.00001
pop of  0Fe 7g 2      0.00000
pop of  0Fe 7g 3      0.00000
pop of  0Fe 7g 4      0.00000
pop of  0Fe 6h-5      0.00000
pop of  0Fe 6h-4      0.00000
pop of  0Fe 6h-3      0.00000
pop of  0Fe 6h-2      0.00000
pop of  0Fe 6h-1      0.00000
pop of  0Fe 6h 0      0.00000
pop of  0Fe 6h 1      0.00000
pop of  0Fe 6h 2      0.00000
pop of  0Fe 6h 3      0.00000
pop of  0Fe 6h 4      0.00000
pop of  0Fe 6h 5      0.00000
pop of  0Fe 7h-5      0.00000
pop of  0Fe 7h-4      0.00000
pop of  0Fe 7h-3      0.00000
pop of  0Fe 7h-2      0.00000
pop of  0Fe 7h-1      0.00000
pop of  0Fe 7h 0      0.00000
pop of  0Fe 7h 1      0.00000
pop of  0Fe 7h 2      0.00000
pop of  0Fe 7h 3      0.00000
pop of  0Fe 7h 4      0.00000
pop of  0Fe 7h 5      0.00000
 ** Mulliken atomic charges  **
charge of  0Fe =      1.00000

******** <class 'pyscf.mcscf.mc1step.CASSCF'> flags ********
CAS (6e+1e, 6o), ncore = 4, nvir = 125
max_cycle_macro = 50
max_cycle_micro = 4
conv_tol = 1e-07
conv_tol_grad = None
orbital rotation max_stepsize = 0.02
augmented hessian ah_max_cycle = 30
augmented hessian ah_conv_tol = 1e-12
augmented hessian ah_linear dependence = 1e-14
augmented hessian ah_level shift = 0
augmented hessian ah_start_tol = 2.5
augmented hessian ah_start_cycle = 3
augmented hessian ah_grad_trust_region = 3
kf_trust_region = 3
kf_interval = 4
ci_response_space = 4
ci_grad_trust_region = 3
with_dep4 0
natorb = False
canonicalization = True
sorting_mo_energy = False
chkfile = ./scratch/34375/tmpEsivKW
max_memory 4000 MB (current use 828 MB)
internal_rotation = False

******** SHCI flags ********
executable             = /home/bamu3429/softwares/dice/Dice
mpiprefix              = srun -n20
scratchDirectory       = ./scratch/34375
integralFile           = ./FCIDUMP
configFile             = ./input.dat
outputFile             = ./output.dat
maxIter                = 6
sweep_iter             = []
sweep_epsilon          = []
nPTiter                = 0
Stochastic             = True
fullrestart            = False
restart                = False
num_thrds              = 12
memory                 = None

CASCI E = -122.805062018566  S^2 = 8.7500000
Set conv_tol_grad to 0.000316228
macro iter 1 (1 JK  1 micro), CASSCF E = -122.805062018566  dE = 0  S^2 = 8.7500000
               |grad[o]|=4.79e-07  |grad[c]|= None  |ddm|=    0
1-step CASSCF converged in 1 macro (1 JK 1 micro) steps
CASSCF canonicalization
CASSCF energy = -122.805062018566


--------------------------------------------------
                 ICMPSPT CALCULATION              
--------------------------------------------------

Perturbation type: MRLCC
With fully internally contracted scheme
With third order correction

Preparing necessary RDMs
......production of RDMs took       2.32 sec
Reading binary 4RDM from DICE
......reading the RDM took          1.05 sec

(GOOD) Trace 4RDM:    840.0 =    7*    6*    5*    4
(GOOD) Trace 3RDM:    210.0 =    7*    6*    5
(GOOD) Trace 2RDM:     42.0 =    7*    6
(GOOD) Trace 1RDM:      7.0 =    7

Producing the integrals
......production of INT took     246.04 sec

Energy_core = -101.62992939
Energy      = -122.80506202

WARNING: Have to use natural orbitals from CAASCF
         offdiagonal elements:    1.03244063

Basic ingredients written to int/
......savings of INGREDIENTS took      67.04 sec

Second-order:
perturber CCVV --        -0.112673201
perturber CCAV --        -0.039236616
perturber ACVV --        -0.213764316
perturber CCAA --        -0.017752419
perturber AAVV --        -0.159847324
perturber CAAV --        -0.113384954
perturber AAAV --        -0.004945452
perturber AAAC --        -0.000000000
Total:                   -0.661604281

Third-order:              0.002425088

Total PT       --        -0.659179193

