 &FCI NORB=9 ,NELEC=10 ,MS2=4,
  ORBSYM=1,1,1,1,1,1,1,1,1,
  ISYM=1,
 &END
  6.331207326249e-01    1  1  1  1
  2.938561584481e-02    2  1  2  1
  5.873768468441e-01    2  2  1  1
  6.780840872024e-01    2  2  2  2
  2.910815316892e-02    3  1  3  1
  2.979415806840e-02    3  2  3  2
  5.817187830452e-01    3  3  1  1
  6.019410804061e-01    3  3  2  2
  6.484396306420e-01    3  3  3  3
 -3.497901791010e-03    4  1  1  1
 -1.702801826223e-02    4  1  2  2
 -1.218066723646e-02    4  1  3  3
  1.964356182058e-02    4  1  4  1
 -2.177462253600e-03    4  2  2  1
  2.321376526104e-03    4  2  4  2
 -4.674260171829e-03    4  3  3  1
  4.746585201515e-03    4  3  4  3
  3.857419298577e-01    4  4  1  1
  3.120744762298e-01    4  4  2  2
  3.392488038354e-01    4  4  3  3
  6.396837997680e-02    4  4  4  1
  6.406342858707e-01    4  4  4  4
 -8.410648267591e-05    5  1  3  2
  8.512712347515e-03    5  1  5  1
 -1.552375134705e-03    5  2  3  1
  1.769985373461e-03    5  2  4  3
  3.098262715753e-03    5  2  5  2
 -1.714331217346e-03    5  3  2  1
 -9.020245619957e-04    5  3  4  2
  4.386237850511e-03    5  3  5  3
  1.633692682022e-03    5  4  3  2
  5.591327590109e-03    5  4  5  1
  1.864517500373e-02    5  4  5  4
  4.063091163299e-01    5  5  1  1
  3.266674291988e-01    5  5  2  2
  3.515037591395e-01    5  5  3  3
  6.437408713752e-02    5  5  4  1
  6.688566543097e-01    5  5  4  4
  7.809588882379e-01    5  5  5  5
  1.742671531926e-02    6  1  1  1
  2.915129689315e-03    6  1  2  2
  7.063091802362e-03    6  1  3  3
  9.220938543485e-03    6  1  4  1
  5.466283360916e-02    6  1  4  4
  6.802020598817e-02    6  1  5  5
  1.661089237558e-02    6  1  6  1
 -2.597083762232e-03    6  2  2  1
 -4.597039779990e-04    6  2  4  2
  1.430742622078e-03    6  2  5  3
  2.773739008186e-03    6  2  6  2
 -6.476530779929e-04    6  3  3  1
 -6.280793668924e-04    6  3  4  3
 -5.776764604471e-04    6  3  5  2
  2.495236749554e-03    6  3  6  3
 -4.197863586373e-02    6  4  1  1
 -2.766927978561e-02    6  4  2  2
 -3.122921131583e-02    6  4  3  3
 -1.201564955300e-02    6  4  4  1
 -1.076968565561e-01    6  4  4  4
 -1.267011999683e-01    6  4  5  5
 -1.524238860910e-02    6  4  6  1
  4.589377070949e-02    6  4  6  4
  1.990709175570e-03    6  5  3  2
  5.749152408466e-03    6  5  5  1
  1.565104543459e-03    6  5  5  4
  1.682357789430e-02    6  5  6  5
  3.293766289649e-01    6  6  1  1
  2.777640778831e-01    6  6  2  2
  2.897069306884e-01    6  6  3  3
  3.619716876069e-02    6  6  4  1
  4.877934368352e-01    6  6  4  4
  5.387638701093e-01    6  6  5  5
  4.638360704957e-02    6  6  6  1
 -7.637824093930e-02    6  6  6  4
  4.455255392514e-01    6  6  6  6
 -3.433684214941e-03    7  1  2  1
  2.296772788489e-03    7  1  4  2
 -1.873217511010e-03    7  1  5  3
 -4.877054845774e-04    7  1  6  2
  8.016017516623e-03    7  1  7  1
 -3.963069879627e-02    7  2  1  1
 -8.216965505177e-02    7  2  2  2
 -5.927298735693e-02    7  2  3  3
  1.947447742302e-02    7  2  4  1
  7.744200476194e-02    7  2  4  4
  9.181621660852e-02    7  2  5  5
  1.733930546381e-02    7  2  6  1
 -1.920152124865e-02    7  2  6  4
  6.310588961794e-02    7  2  6  6
  4.665885777023e-02    7  2  7  2
 -5.633661173320e-03    7  3  3  2
  2.053550503973e-03    7  3  5  1
  2.195199442224e-03    7  3  5  4
  2.547663194832e-03    7  3  6  5
  4.927440050501e-03    7  3  7  3
  4.062146494893e-03    7  4  2  1
  5.427753731402e-03    7  4  4  2
 -4.336221118429e-03    7  4  5  3
 -2.179624036301e-03    7  4  6  2
  3.413241631417e-03    7  4  7  1
  2.759938303592e-02    7  4  7  4
 -2.986766691925e-03    7  5  3  1
  2.993219076497e-03    7  5  4  3
  6.243744250328e-03    7  5  5  2
 -2.827971089789e-03    7  5  6  3
  2.892374797060e-02    7  5  7  5
 -2.672920347723e-05    7  6  2  1
 -1.994188534539e-03    7  6  4  2
  1.861564792105e-03    7  6  5  3
  2.522196277584e-03    7  6  6  2
 -1.044968404740e-04    7  6  7  1
 -7.669400966838e-03    7  6  7  4
  1.665712943804e-02    7  6  7  6
  4.333038278968e-01    7  7  1  1
  3.596182214009e-01    7  7  2  2
  3.723559582105e-01    7  7  3  3
  5.711893235985e-02    7  7  4  1
  6.286956302336e-01    7  7  4  4
  7.029484927596e-01    7  7  5  5
  7.187583974941e-02    7  7  6  1
 -1.092749293642e-01    7  7  6  4
  5.308670014299e-01    7  7  6  6
  9.221558697602e-02    7  7  7  2
  7.444871412810e-01    7  7  7  7
  1.401410403508e-01    8  1  1  1
  1.647236506052e-01    8  1  2  2
  1.484710185538e-01    8  1  3  3
 -3.784210463862e-02    8  1  4  1
 -1.116201149617e-01    8  1  4  4
 -1.295288892951e-01    8  1  5  5
 -2.823552190849e-02    8  1  6  1
  2.543719980295e-02    8  1  6  4
 -8.958124850212e-02    8  1  6  6
 -7.169941273822e-02    8  1  7  2
 -1.162420936859e-01    8  1  7  7
  1.584293436080e-01    8  1  8  1
  1.432671787576e-02    8  2  2  1
 -1.403435599375e-03    8  2  4  2
 -8.607190199382e-04    8  2  5  3
 -2.122257190569e-03    8  2  6  2
 -3.102592586997e-03    8  2  7  1
 -5.574400390134e-04    8  2  7  4
 -3.255028270216e-04    8  2  7  6
  1.292132358402e-02    8  2  8  2
  1.316808475144e-02    8  3  3  1
 -2.308009164062e-03    8  3  4  3
 -4.663281211576e-04    8  3  5  2
 -1.475632661053e-03    8  3  6  3
  2.276876951430e-03    8  3  7  5
  1.295506793983e-02    8  3  8  3
 -6.499506331425e-02    8  4  1  1
 -4.890534390140e-02    8  4  2  2
 -5.248504195467e-02    8  4  3  3
 -1.797007938095e-02    8  4  4  1
 -7.201588458689e-02    8  4  4  4
 -7.181663853391e-02    8  4  5  5
 -8.720535767508e-03    8  4  6  1
  1.211923027738e-02    8  4  6  4
 -3.721364428635e-02    8  4  6  6
 -5.460661285828e-03    8  4  7  2
 -7.540179132055e-02    8  4  7  7
  3.528134677681e-03    8  4  8  1
  3.464818359397e-02    8  4  8  4
 -9.891646882544e-04    8  5  3  2
 -1.186346618769e-02    8  5  5  1
 -6.351684322194e-03    8  5  5  4
 -8.649631793695e-03    8  5  6  5
 -2.850535791619e-03    8  5  7  3
  1.829663721163e-02    8  5  8  5
 -8.248899536285e-02    8  6  1  1
 -5.933748618090e-02    8  6  2  2
 -6.303604771338e-02    8  6  3  3
 -1.386083402758e-02    8  6  4  1
 -1.137280278340e-01    8  6  4  4
 -1.387504695889e-01    8  6  5  5
 -2.810802988941e-02    8  6  6  1
  3.416135408361e-02    8  6  6  4
 -8.928702909906e-02    8  6  6  6
 -2.033855082001e-02    8  6  7  2
 -1.470638012188e-01    8  6  7  7
  2.382627544131e-02    8  6  8  1
  2.490710103416e-02    8  6  8  4
  6.057155008587e-02    8  6  8  6
 -6.406740519213e-03    8  7  2  1
 -9.651939654956e-04    8  7  4  2
  1.745547855733e-03    8  7  5  3
 -1.827272233345e-04    8  7  6  2
 -5.726128082357e-03    8  7  7  1
 -6.868935645759e-03    8  7  7  4
  1.681335684490e-04    8  7  7  6
 -4.929156601993e-04    8  7  8  2
  1.379450850814e-02    8  7  8  7
  4.804803642854e-01    8  8  1  1
  4.159768160268e-01    8  8  2  2
  4.265618280226e-01    8  8  3  3
  3.118473849221e-02    8  8  4  1
  4.983972895102e-01    8  8  4  4
  5.369012500714e-01    8  8  5  5
  4.346572670809e-02    8  8  6  1
 -6.595610704111e-02    8  8  6  4
  4.242348212348e-01    8  8  6  6
  3.109237893361e-02    8  8  7  2
  5.545611681554e-01    8  8  7  7
 -1.585360668147e-02    8  8  8  1
 -6.747146645899e-02    8  8  8  4
 -1.064355046190e-01    8  8  8  6
  5.103098887749e-01    8  8  8  8
  7.523408174687e-03    9  1  3  1
 -2.540435039710e-05    9  1  4  3
  1.670347327144e-03    9  1  5  2
 -1.941558978360e-03    9  1  6  3
  2.305354514264e-03    9  1  7  5
  7.730600113296e-03    9  1  8  3
  1.113932684318e-02    9  1  9  1
  1.183383579707e-02    9  2  3  2
 -1.277386242346e-03    9  2  5  1
 -1.594095845177e-03    9  2  5  4
 -1.841999409048e-03    9  2  6  5
 -5.568306125251e-03    9  2  7  3
  1.929487526957e-03    9  2  8  5
  8.242950198104e-03    9  2  9  2
  8.807894301557e-02    9  3  1  1
  1.320927181147e-01    9  3  2  2
  1.384032174876e-01    9  3  3  3
 -3.358791647155e-02    9  3  4  1
 -1.159587810910e-01    9  3  4  4
 -1.302727402221e-01    9  3  5  5
 -2.371490464591e-02    9  3  6  1
  2.650772094240e-02    9  3  6  4
 -8.292429338091e-02    9  3  6  6
 -6.425082769539e-02    9  3  7  2
 -1.116745999282e-01    9  3  7  7
  1.200155661880e-01    9  3  8  1
  8.864804043427e-03    9  3  8  4
  2.355029108030e-02    9  3  8  6
 -2.737501983748e-02    9  3  8  8
  1.261376886259e-01    9  3  9  3
  5.133635936652e-04    9  4  3  1
 -6.886118336659e-03    9  4  4  3
 -2.056214832922e-03    9  4  5  2
  2.391076671480e-03    9  4  6  3
 -7.089954473237e-03    9  4  7  5
 -1.582928143005e-03    9  4  8  3
 -7.311699831033e-04    9  4  9  1
  1.684349904043e-02    9  4  9  4
  2.924936636779e-03    9  5  2  1
  2.413625776138e-03    9  5  4  2
 -9.488187375933e-03    9  5  5  3
 -1.826992957397e-03    9  5  6  2
  2.302898704611e-03    9  5  7  1
  1.220005443997e-02    9  5  7  4
 -4.982230813302e-03    9  5  7  6
 -2.569428080703e-04    9  5  8  2
 -4.661888693822e-03    9  5  8  7
  2.536280840986e-02    9  5  9  5
 -3.102617976159e-03    9  6  3  1
  2.973349416198e-03    9  6  4  3
  2.090215591639e-03    9  6  5  2
 -5.606711043977e-03    9  6  6  3
  8.699729208211e-03    9  6  7  5
  1.939432569931e-03    9  6  8  3
  2.769957062679e-03    9  6  9  1
 -7.472758427264e-03    9  6  9  4
  1.583601107644e-02    9  6  9  6
 -7.064003235799e-03    9  7  3  2
 -6.627934876206e-03    9  7  5  1
 -6.090088622709e-03    9  7  5  4
 -7.040311485835e-03    9  7  6  5
 -7.359180794430e-03    9  7  7  3
  8.672663730801e-03    9  7  8  5
  3.558609136986e-03    9  7  9  2
  2.435932421435e-02    9  7  9  7
  1.210833933877e-02    9  8  3  1
 -2.422039569635e-03    9  8  4  3
 -1.434416998420e-03    9  8  5  2
  1.970780766471e-03    9  8  6  3
 -7.445198079965e-03    9  8  7  5
  1.257377363658e-03    9  8  8  3
 -2.343113238713e-03    9  8  9  1
  1.896586189158e-03    9  8  9  4
 -8.301062881661e-03    9  8  9  6
  1.628705659606e-02    9  8  9  8
  4.810875603658e-01    9  9  1  1
  4.164280072070e-01    9  9  2  2
  4.558423788292e-01    9  9  3  3
  5.457312798146e-02    9  9  4  1
  6.053725119214e-01    9  9  4  4
  6.523995028188e-01    9  9  5  5
  5.477519352526e-02    9  9  6  1
 -9.472832682297e-02    9  9  6  4
  4.790121903783e-01    9  9  6  6
  5.409396500021e-02    9  9  7  2
  6.437342550506e-01    9  9  7  7
 -5.947861665232e-02    9  9  8  1
 -8.660813019657e-02    9  9  8  4
 -1.274578173983e-01    9  9  8  6
  5.417047875930e-01    9  9  8  8
 -7.285689773117e-02    9  9  9  3
  6.694620707377e-01    9  9  9  9
 -4.832158099509e+00    1  1  0  0
 -4.611707900625e+00    2  2  0  0
 -4.647354931230e+00    3  3  0  0
 -1.804257807023e-01    4  1  0  0
 -4.271413289074e+00    4  4  0  0
 -4.587656221117e+00    5  5  0  0
 -2.908840141760e-01    6  1  0  0
  5.465614847416e-01    6  4  0  0
 -3.648745882660e+00    6  6  0  0
 -8.032808050334e-02    7  2  0  0
 -4.602139000384e+00    7  7  0  0
 -2.628433602343e-01    8  1  0  0
  4.723890167729e-01    8  4  0  0
  7.576144440399e-01    8  6  0  0
 -4.146703711451e+00    8  8  0  0
 -7.822352043223e-02    9  3  0  0
 -4.669954628829e+00    9  9  0  0
    -77.023111708486   0  0  0  0
