#INFO: **** input file is /projects/bamu3429/BENCHMARK/fresh_atoms/MRPT/vqz/monoxides/CrO/mrpt.py ****
import json
from pyscf import gto,scf,mcscf, fci, lo, ci, cc
from pyscf.scf import ROHF, UHF,ROKS
import numpy as np
import pandas as pd

# THIS IS WERE IT STARTS ====================================

df=json.load(open("../../../trail.json"))

spins={'ScO':1, 'TiO':2, 'VO':3, 'CrO':4, 'MnO':5, 'FeO':4, 'CuO':1}

nd={'Sc':(1,0), 'Ti':(2,0), 'V':(3,0), 'Cr':(5,0), 'Mn':(5,0), 'Fe':(5,1), 'Cu':(5,4)}

cas={'Sc':3, 'Ti':4, 'V':5, 'Cr':6, 'Mn':7, 'Fe':8, 'Cu':11}

re={'ScO':1.668, 'TiO':1.623, 'VO':1.591, 'CrO':1.621, 'MnO':1.648, 'FeO':1.616, 'CuO':1.725}

datacsv={}
for nm in ['basis','charge','method','molecule','pseudopotential',
           'totalenergy','totalenergy-stocherr','totalenergy-syserr']:
  datacsv[nm]=[]

basis='vqz'
element='Cr'

mol=gto.Mole()
mol.ecp={}
mol.basis={}
for el in [element,'O']:
  mol.ecp[el]=gto.basis.parse_ecp(df[el]['ecp'])
  mol.basis[el]=gto.basis.parse(df[el][basis])
mol.charge=0
mol.spin=spins[element+'O']
mol.build(atom="%s 0. 0. 0.; O 0. 0. %g"%(element,re[element+'O']),verbose=4)

m=ROHF(mol)
m.level_shift=1000.0
dm=m.from_chk("../../../../HF/monoxides/"+element+basis+"0.chk")
hf=m.kernel(dm)
m.analyze()

from pyscf.shciscf import shci
mc = shci.SHCISCF(m, 9, 4+cas[element])
#mc.fcisolver.conv_tol = 1e-14
mc.fcisolver.mpiprefix="mpirun -np 28"
mc.fcisolver.num_thrds=12
mc.verbose = 4
cas=mc.kernel()[0]
 
from pyscf.icmpspt import icmpspt
pt=icmpspt.icmpspt(mc,rdmM=500, PTM=1000,\
                          pttype="MRLCC",\
                          third_order=True,\
                          fully_ic=True,\
                          do_dm4=True)

datacsv['basis'].append(basis)
datacsv['charge'].append(0)
datacsv['method'].append('MRPT')
datacsv['molecule'].append(element)
datacsv['pseudopotential'].append('trail')
datacsv['totalenergy'].append(cas+pt)
datacsv['totalenergy-stocherr'].append(0.0)
datacsv['totalenergy-syserr'].append(0.0)
pd.DataFrame(datacsv).to_csv(element+".csv",index=False)

#INFO: ******************** input file end ********************


System: ('Linux', 'bnode0306.rc.int.colorado.edu', '3.10.0-514.41.1.el7.x86_64', '#1 SMP Wed Jan 17 10:26:16 EST 2018', 'x86_64', 'x86_64')  Threads 1
Python 2.7.11 (default, Mar 22 2016, 01:42:54) 
[GCC Intel(R) C++ gcc 4.8 mode]
numpy 1.11.1  scipy 0.17.1
Date: Wed Mar 28 12:24:04 2018
PySCF version 1.4
PySCF path  /projects/bamu3429/softwares/pyscf_uptodate/pyscf
GIT ORIG_HEAD e2292e6edec2b0e0024c21b81de03db1d7bd4121
GIT HEAD      ref: refs/heads/master
GIT master branch  f3591ef22170896a4cdc2aadaa6f5da388ffcadb

[INPUT] VERBOSE 4
[INPUT] num atoms = 2
[INPUT] num electrons = 20
[INPUT] charge = 0
[INPUT] spin (= nelec alpha-beta = 2S) = 4
[INPUT] symmetry False subgroup None
[INPUT]  1 Cr     0.000000000000   0.000000000000   0.000000000000 AA    0.000000000000   0.000000000000   0.000000000000 Bohr
[INPUT]  2 O      0.000000000000   0.000000000000   1.621000000000 AA    0.000000000000   0.000000000000   3.063246047920 Bohr
[INPUT] ---------------- BASIS SET ---------------- 
[INPUT] l, kappa, [nprim/nctr], expnt,             c_1 c_2 ...
[INPUT] Cr
[INPUT] 0    0    [12   /1   ]  41.45590127       0.010332
                                22.20089455       -0.091393
                                12.37022616       0.412444
                                7.15443966        -0.722409
                                3.63012556        0.039693
                                1.88942247        0.321055
                                1.04381355        0.652182
                                0.47307333        0.264443
                                0.22628807        -0.008646
                                0.10750747        0.012188
                                0.05101028        -0.00242
                                0.0242372         0.001733
[INPUT] 0    0    [12   /1   ]  41.45590127       -0.001971
                                22.20089455       0.019152
                                12.37022616       -0.094562
                                7.15443966        0.178991
                                3.63012556        -0.015716
                                1.88942247        -0.084882
                                1.04381355        -0.243744
                                0.47307333        -0.214624
                                0.22628807        0.055092
                                0.10750747        0.415903
                                0.05101028        0.543473
                                0.0242372         0.170131
[INPUT] 0    0    [12   /1   ]  41.45590127       -0.006227
                                22.20089455       0.071299
                                12.37022616       -0.410892
                                7.15443966        0.917584
                                3.63012556        -0.221951
                                1.88942247        -1.345636
                                1.04381355        -0.06992
                                0.47307333        0.755692
                                0.22628807        0.739114
                                0.10750747        0.112359
                                0.05101028        -0.547421
                                0.0242372         -0.284669
[INPUT] 0    0    [12   /1   ]  41.45590127       -0.006182
                                22.20089455       0.080693
                                12.37022616       -0.526764
                                7.15443966        1.364382
                                3.63012556        -0.812528
                                1.88942247        -2.239916
                                1.04381355        1.755013
                                0.47307333        1.667635
                                0.22628807        -1.426447
                                0.10750747        -1.028337
                                0.05101028        0.585035
                                0.0242372         0.607504
[INPUT] 0    0    [12   /1   ]  41.45590127       -2.6e-05
                                22.20089455       -0.072001
                                12.37022616       0.777417
                                7.15443966        -2.790553
                                3.63012556        4.512611
                                1.88942247        -0.555137
                                1.04381355        -4.087256
                                0.47307333        3.038568
                                0.22628807        0.867446
                                0.10750747        -2.097137
                                0.05101028        -0.014926
                                0.0242372         0.887447
[INPUT] 0    0    [1    /1   ]  0.0242372            1
[INPUT] 0    0    [1    /1   ]  0.01151614           1
[INPUT] 1    0    [12   /1   ]  28.88080716       -0.002973
                                13.19380569       0.044202
                                7.25722596        -0.232476
                                4.84342676        0.167654
                                2.76949909        0.179744
                                1.50719356        0.46058
                                0.72516508        0.338218
                                0.36385743        0.097984
                                0.16204617        0.012145
                                0.07447705        -0.000948
                                0.03422994        0.000821
                                0.01573221        -0.00022
[INPUT] 1    0    [12   /1   ]  28.88080716       0.000536
                                13.19380569       -0.009363
                                7.25722596        0.054752
                                4.84342676        -0.042977
                                2.76949909        -0.049244
                                1.50719356        -0.128712
                                0.72516508        -0.11682
                                0.36385743        0.044517
                                0.16204617        0.322192
                                0.07447705        0.482878
                                0.03422994        0.275764
                                0.01573221        0.025472
[INPUT] 1    0    [12   /1   ]  28.88080716       -0.000601
                                13.19380569       0.036419
                                7.25722596        -0.319649
                                4.84342676        0.265625
                                2.76949909        0.800568
                                1.50719356        0.1134
                                0.72516508        -0.940194
                                0.36385743        -0.356195
                                0.16204617        0.582848
                                0.07447705        0.421307
                                0.03422994        0.024352
                                0.01573221        0.004528
[INPUT] 1    0    [12   /1   ]  28.88080716       0.001606
                                13.19380569       0.051311
                                7.25722596        -0.743081
                                4.84342676        1.253251
                                2.76949909        1.03744
                                1.50719356        -1.776327
                                0.72516508        -0.552415
                                0.36385743        1.568643
                                0.16204617        -0.082341
                                0.07447705        -0.666944
                                0.03422994        -0.027493
                                0.01573221        -0.01175
[INPUT] 1    0    [12   /1   ]  28.88080716       0.013614
                                13.19380569       -0.041885
                                7.25722596        -1.136499
                                4.84342676        3.740841
                                2.76949909        -2.3618
                                1.50719356        -1.491548
                                0.72516508        2.916436
                                0.36385743        -1.186695
                                0.16204617        -1.003943
                                0.07447705        1.033584
                                0.03422994        -0.005965
                                0.01573221        0.033567
[INPUT] 1    0    [1    /1   ]  0.01573221           1
[INPUT] 1    0    [1    /1   ]  0.00723058           1
[INPUT] 2    0    [10   /1   ]  46.50908408       0.000358
                                21.60133229       -0.010512
                                11.03652449       0.11118
                                4.54288797        0.164184
                                2.18180243        0.267436
                                1.04009058        0.310836
                                0.48262909        0.28353
                                0.21570372        0.173079
                                0.10059873        0.057279
                                0.04653409        0.00937
[INPUT] 2    0    [10   /1   ]  46.50908408       0.000742
                                21.60133229       0.005602
                                11.03652449       -0.103642
                                4.54288797        -0.218406
                                2.18180243        -0.413398
                                1.04009058        -0.079422
                                0.48262909        0.294538
                                0.21570372        0.416612
                                0.10059873        0.235487
                                0.04653409        0.050239
[INPUT] 2    0    [10   /1   ]  46.50908408       -0.00365
                                21.60133229       0.008162
                                11.03652449       0.079193
                                4.54288797        0.433939
                                2.18180243        0.349419
                                1.04009058        -0.696856
                                0.48262909        -0.418157
                                0.21570372        0.309031
                                0.10059873        0.451053
                                0.04653409        0.102595
[INPUT] 2    0    [10   /1   ]  46.50908408       2e-06
                                21.60133229       -0.017312
                                11.03652449       0.289925
                                4.54288797        0.891377
                                2.18180243        -1.014212
                                1.04009058        -0.495442
                                0.48262909        0.952535
                                0.21570372        0.034125
                                0.10059873        -0.457461
                                0.04653409        -0.126771
[INPUT] 2    0    [1    /1   ]  0.04653409           1
[INPUT] 2    0    [1    /1   ]  0.02152533           1
[INPUT] 3    0    [1    /1   ]  3.786904             1
[INPUT] 3    0    [1    /1   ]  1.303251             1
[INPUT] 3    0    [1    /1   ]  0.448509             1
[INPUT] 3    0    [1    /1   ]  0.1543527            1
[INPUT] 4    0    [1    /1   ]  3.665821             1
[INPUT] 4    0    [1    /1   ]  1.288052             1
[INPUT] 4    0    [1    /1   ]  0.45258017           1
[INPUT] 5    0    [1    /1   ]  3.056986             1
[INPUT] 5    0    [1    /1   ]  1.07412687           1
[INPUT] O
[INPUT] 0    0    [10   /1   ]  57.663349         -0.002794
                                35.726816         0.023976
                                22.453757         -0.115974
                                14.732301         0.288033
                                9.739917          -0.274786
                                5.042008          -0.083789
                                2.157818          0.063778
                                1.002916          0.410182
                                0.421839          0.504044
                                0.173041          0.172152
[INPUT] 0    0    [1    /1   ]  1.70747              1
[INPUT] 0    0    [1    /1   ]  0.617491             1
[INPUT] 0    0    [1    /1   ]  0.223309             1
[INPUT] 0    0    [1    /1   ]  0.084592             1
[INPUT] 1    0    [10   /1   ]  52.47406          -0.000522
                                32.138432         0.004857
                                19.458579         -0.027749
                                11.839344         0.074258
                                7.91003           0.014369
                                3.670858          0.153479
                                1.53966           0.283685
                                0.647119          0.358201
                                0.267853          0.29559
                                0.107198          0.104889
[INPUT] 1    0    [1    /1   ]  1.345435             1
[INPUT] 1    0    [1    /1   ]  0.458358             1
[INPUT] 1    0    [1    /1   ]  0.156151             1
[INPUT] 1    0    [1    /1   ]  0.045837             1
[INPUT] 2    0    [1    /1   ]  3.661538             1
[INPUT] 2    0    [1    /1   ]  1.279275             1
[INPUT] 2    0    [1    /1   ]  0.446952             1
[INPUT] 2    0    [1    /1   ]  0.148191             1
[INPUT] 3    0    [1    /1   ]  2.598839             1
[INPUT] 3    0    [1    /1   ]  0.849032             1
[INPUT] 3    0    [1    /1   ]  0.310222             1
[INPUT] 4    0    [1    /1   ]  1.838653             1
[INPUT] 4    0    [1    /1   ]  0.706784             1
nuclear repulsion = 27.4218912506354
number of shells = 48
number of NR pGTOs = 650
number of NR cGTOs = 214
basis = {'Cr': [[0, [41.45590127, 0.010332], [22.20089455, -0.091393], [12.37022616, 0.412444], [7.15443966, -0.722409], [3.63012556, 0.039693], [1.88942247, 0.321055], [1.04381355, 0.652182], [0.47307333, 0.264443], [0.22628807, -0.008646], [0.10750747, 0.012188], [0.05101028, -0.00242], [0.0242372, 0.001733]], [0, [41.45590127, -0.001971], [22.20089455, 0.019152], [12.37022616, -0.094562], [7.15443966, 0.178991], [3.63012556, -0.015716], [1.88942247, -0.084882], [1.04381355, -0.243744], [0.47307333, -0.214624], [0.22628807, 0.055092], [0.10750747, 0.415903], [0.05101028, 0.543473], [0.0242372, 0.170131]], [0, [41.45590127, -0.006227], [22.20089455, 0.071299], [12.37022616, -0.410892], [7.15443966, 0.917584], [3.63012556, -0.221951], [1.88942247, -1.345636], [1.04381355, -0.06992], [0.47307333, 0.755692], [0.22628807, 0.739114], [0.10750747, 0.112359], [0.05101028, -0.547421], [0.0242372, -0.284669]], [0, [41.45590127, -0.006182], [22.20089455, 0.080693], [12.37022616, -0.526764], [7.15443966, 1.364382], [3.63012556, -0.812528], [1.88942247, -2.239916], [1.04381355, 1.755013], [0.47307333, 1.667635], [0.22628807, -1.426447], [0.10750747, -1.028337], [0.05101028, 0.585035], [0.0242372, 0.607504]], [0, [41.45590127, -2.6e-05], [22.20089455, -0.072001], [12.37022616, 0.777417], [7.15443966, -2.790553], [3.63012556, 4.512611], [1.88942247, -0.555137], [1.04381355, -4.087256], [0.47307333, 3.038568], [0.22628807, 0.867446], [0.10750747, -2.097137], [0.05101028, -0.014926], [0.0242372, 0.887447]], [0, [0.0242372, 1.0]], [0, [0.01151614, 1.0]], [1, [28.88080716, -0.002973], [13.19380569, 0.044202], [7.25722596, -0.232476], [4.84342676, 0.167654], [2.76949909, 0.179744], [1.50719356, 0.46058], [0.72516508, 0.338218], [0.36385743, 0.097984], [0.16204617, 0.012145], [0.07447705, -0.000948], [0.03422994, 0.000821], [0.01573221, -0.00022]], [1, [28.88080716, 0.000536], [13.19380569, -0.009363], [7.25722596, 0.054752], [4.84342676, -0.042977], [2.76949909, -0.049244], [1.50719356, -0.128712], [0.72516508, -0.11682], [0.36385743, 0.044517], [0.16204617, 0.322192], [0.07447705, 0.482878], [0.03422994, 0.275764], [0.01573221, 0.025472]], [1, [28.88080716, -0.000601], [13.19380569, 0.036419], [7.25722596, -0.319649], [4.84342676, 0.265625], [2.76949909, 0.800568], [1.50719356, 0.1134], [0.72516508, -0.940194], [0.36385743, -0.356195], [0.16204617, 0.582848], [0.07447705, 0.421307], [0.03422994, 0.024352], [0.01573221, 0.004528]], [1, [28.88080716, 0.001606], [13.19380569, 0.051311], [7.25722596, -0.743081], [4.84342676, 1.253251], [2.76949909, 1.03744], [1.50719356, -1.776327], [0.72516508, -0.552415], [0.36385743, 1.568643], [0.16204617, -0.082341], [0.07447705, -0.666944], [0.03422994, -0.027493], [0.01573221, -0.01175]], [1, [28.88080716, 0.013614], [13.19380569, -0.041885], [7.25722596, -1.136499], [4.84342676, 3.740841], [2.76949909, -2.3618], [1.50719356, -1.491548], [0.72516508, 2.916436], [0.36385743, -1.186695], [0.16204617, -1.003943], [0.07447705, 1.033584], [0.03422994, -0.005965], [0.01573221, 0.033567]], [1, [0.01573221, 1.0]], [1, [0.00723058, 1.0]], [2, [46.50908408, 0.000358], [21.60133229, -0.010512], [11.03652449, 0.11118], [4.54288797, 0.164184], [2.18180243, 0.267436], [1.04009058, 0.310836], [0.48262909, 0.28353], [0.21570372, 0.173079], [0.10059873, 0.057279], [0.04653409, 0.00937]], [2, [46.50908408, 0.000742], [21.60133229, 0.005602], [11.03652449, -0.103642], [4.54288797, -0.218406], [2.18180243, -0.413398], [1.04009058, -0.079422], [0.48262909, 0.294538], [0.21570372, 0.416612], [0.10059873, 0.235487], [0.04653409, 0.050239]], [2, [46.50908408, -0.00365], [21.60133229, 0.008162], [11.03652449, 0.079193], [4.54288797, 0.433939], [2.18180243, 0.349419], [1.04009058, -0.696856], [0.48262909, -0.418157], [0.21570372, 0.309031], [0.10059873, 0.451053], [0.04653409, 0.102595]], [2, [46.50908408, 2e-06], [21.60133229, -0.017312], [11.03652449, 0.289925], [4.54288797, 0.891377], [2.18180243, -1.014212], [1.04009058, -0.495442], [0.48262909, 0.952535], [0.21570372, 0.034125], [0.10059873, -0.457461], [0.04653409, -0.126771]], [2, [0.04653409, 1.0]], [2, [0.02152533, 1.0]], [3, [3.786904, 1.0]], [3, [1.303251, 1.0]], [3, [0.448509, 1.0]], [3, [0.1543527, 1.0]], [4, [3.665821, 1.0]], [4, [1.288052, 1.0]], [4, [0.45258017, 1.0]], [5, [3.056986, 1.0]], [5, [1.07412687, 1.0]]], 'O': [[0, [57.663349, -0.002794], [35.726816, 0.023976], [22.453757, -0.115974], [14.732301, 0.288033], [9.739917, -0.274786], [5.042008, -0.083789], [2.157818, 0.063778], [1.002916, 0.410182], [0.421839, 0.504044], [0.173041, 0.172152]], [0, [1.70747, 1.0]], [0, [0.617491, 1.0]], [0, [0.223309, 1.0]], [0, [0.084592, 1.0]], [1, [52.47406, -0.000522], [32.138432, 0.004857], [19.458579, -0.027749], [11.839344, 0.074258], [7.91003, 0.014369], [3.670858, 0.153479], [1.53966, 0.283685], [0.647119, 0.358201], [0.267853, 0.29559], [0.107198, 0.104889]], [1, [1.345435, 1.0]], [1, [0.458358, 1.0]], [1, [0.156151, 1.0]], [1, [0.045837, 1.0]], [2, [3.661538, 1.0]], [2, [1.279275, 1.0]], [2, [0.446952, 1.0]], [2, [0.148191, 1.0]], [3, [2.598839, 1.0]], [3, [0.849032, 1.0]], [3, [0.310222, 1.0]], [4, [1.838653, 1.0]], [4, [0.706784, 1.0]]]}
ecp = {'Cr': [10, [[-1, [[], [[13.07675203, 14.0]], [[15.15807582, 1258.1555038], [4.62785686, -98.60998187], [15.41136599, -6552.46055066], [15.38690637, 5353.09061557]], [[5.24897308, 183.07452839]]]], [0, [[], [], [[9.77680844, -91901.2080948], [9.95980111, 96320.14803227], [8.62275214, 3928.3135917], [12.29288144, -10977.62459544], [18.41316592, -1741.60409682], [16.38541961, 4413.26493033]], []]], [1, [[], [], [[12.00099996, -22156.17142851], [11.46524435, 21551.07876111], [16.23852226, 3703.78784703], [18.43861108, -1424.18632323], [8.88877941, -1964.93568469], [7.52644784, 317.50498882]], []]], [2, [[], [], [[11.1066837, -5435.29666496], [8.49801115, 7350.69608766], [12.28065533, 2443.80334995], [8.1885354, -5401.76770998], [14.34306836, 3881.23075486], [15.24784181, -2855.87137953]], []]]]], 'O': [2, [[-1, [[], [[10.27717748, 6.0]], [[15.99566749, 1232.50197768], [10.46901775, -696.47008301], [14.6384801, -2654.22657081], [12.57591181, 2101.67732548]], [[7.77739102, 61.66306486]]]], [0, [[], [], [[12.39426073, -656683.37638839], [12.38126171, 657858.57667068], [8.57671033, 511.50098405], [9.89256508, -2579.54665641], [28.05641604, -57.68129584], [17.24753607, 970.30940152]], []]], [1, [[], [], [[14.78918914, -363027.24258186], [14.82014018, 361852.52314043], [22.89622221, -1300.20069256], [8.51331893, -181.96869573], [11.48609758, 2194.87589959], [27.22017524, 451.19906206]], []]]]]}
CPU time:         0.61


******** <class 'pyscf.scf.rohf.ROHF'> flags ********
method = ROHF
initial guess = minao
damping factor = 0
level shift factor = 1000.0
DIIS = <class 'pyscf.scf.diis.CDIIS'>
DIIS start cycle = 1
DIIS space = 8
SCF tol = 1e-09
SCF gradient tol = None
max. SCF cycles = 50
direct_scf = True
direct_scf_tol = 1e-13
chkfile to save SCF result = /projects/bamu3429/BENCHMARK/fresh_atoms/MRPT/vqz/monoxides/CrO/tmp1Kvaoj
max_memory 4000 MB (current use 85 MB)
num. doubly occ = 8  num. singly occ = 4
Set gradient conv threshold to 3.16228e-05
init E= -101.844084610663
  HOMO = 499.886643016924  LUMO = 1000.00307717397
cycle= 1 E= -101.844084610664  delta_E= -5.4e-13  |g|= 1.2e-05  |ddm|= 9.52e-08
  HOMO = -0.113356982929729  LUMO = 0.00307717393060359
Extra cycle  E= -101.844084610763  delta_E= -9.97e-11  |g|= 3.75e-06  |ddm|= 3.26e-05
converged SCF energy = -101.844084610763
**** MO energy ****
                Roothaan           | alpha              | beta
MO #1   energy= -3.65200811826533  | -3.78624088656319  | -3.51777535301909  occ= 2
MO #2   energy= -2.3434351647946   | -2.45981261690963  | -2.22705771934636  occ= 2
MO #3   energy= -2.32939618190962  | -2.48942843288585  | -2.1693639309334   occ= 2
MO #4   energy= -2.32310903394638  | -2.52956536349829  | -2.11665273613145  occ= 2
MO #5   energy= -1.14807021040614  | -1.15677161347519  | -1.13936883878932  occ= 2
MO #6   energy= -0.44530468548145  | -0.466427715605529 | -0.424182979603076 occ= 2
MO #7   energy= -0.431708733142572 | -0.455862466027927 | -0.407554978902382 occ= 2
MO #8   energy= -0.409325609479323 | -0.417521328518987 | -0.401129890439651 occ= 2
MO #9   energy= -0.141655713590069 | -0.517661418353645 | 0.234350424635994  occ= 1
MO #10  energy= -0.133715209360961 | -0.565982654882922 | 0.298552104280614  occ= 1
MO #11  energy= -0.120464768276643 | -0.393085974485707 | 0.152156230514737  occ= 1
MO #12  energy= -0.113356982929729 | -0.529079099605983 | 0.302364951641688  occ= 1
MO #13  energy= 0.00307717393060359 | -0.00259636491167246 | 0.00875087488715293 occ= 0
MO #14  energy= 0.0102652686000837 | 0.0077542519162852 | 0.0127762852838808 occ= 0
MO #15  energy= 0.012550428873635  | 0.0115858420114659 | 0.0135149887884694 occ= 0
MO #16  energy= 0.0243938806799448 | 0.0204035231925262 | 0.0283843597858305 occ= 0
MO #17  energy= 0.0322810919043252 | 0.0240218085884336 | 0.0405403752202184 occ= 0
MO #18  energy= 0.0326729049224471 | 0.0254259537122375 | 0.0399196861023502 occ= 0
MO #19  energy= 0.0416384568099968 | 0.0355551869046449 | 0.0477217306221959 occ= 0
MO #20  energy= 0.0630502523542334 | 0.0625481885716139 | 0.0635523236380173 occ= 0
MO #21  energy= 0.0631528952218281 | 0.0627132748271523 | 0.0635925213885052 occ= 0
MO #22  energy= 0.0698908142915225 | 0.069147911260225  | 0.0706337173228212 occ= 0
MO #23  energy= 0.070862613643635  | 0.064252106345493  | 0.077473295221074  occ= 0
MO #24  energy= 0.070988753387825  | 0.0705208264604109 | 0.0714566776726582 occ= 0
MO #25  energy= 0.0861552783485198 | 0.0764355065319519 | 0.0958751577353207 occ= 0
MO #26  energy= 0.0983748663952607 | 0.0809444656993142 | 0.115805267091206  occ= 0
MO #27  energy= 0.12630012272145   | 0.121204254753577  | 0.131396269470559  occ= 0
MO #28  energy= 0.132088401014149  | 0.111202800883001  | 0.152974227339768  occ= 0
MO #29  energy= 0.191593381594752  | 0.183994429733499  | 0.199192422285134  occ= 0
MO #30  energy= 0.19400613308904   | 0.186930905778945  | 0.201081408779387  occ= 0
MO #31  energy= 0.19820734549802   | 0.188932204192932  | 0.207482511928056  occ= 0
MO #32  energy= 0.203362982484012  | 0.176023308219785  | 0.230702656748238  occ= 0
MO #33  energy= 0.222758190638433  | 0.214353866607438  | 0.23116251466943   occ= 0
MO #34  energy= 0.223153868831972  | 0.214955598249264  | 0.231352141015501  occ= 0
MO #35  energy= 0.236300226253907  | 0.22868467823893   | 0.243915774268884  occ= 0
MO #36  energy= 0.236953380528701  | 0.229213131326124  | 0.244693622796531  occ= 0
MO #37  energy= 0.242660424964885  | 0.233985374099243  | 0.251335655834476  occ= 0
MO #38  energy= 0.320303564981711  | 0.309933323947733  | 0.330673876659393  occ= 0
MO #39  energy= 0.530962886478261  | 0.511909538869307  | 0.550016249046277  occ= 0
MO #40  energy= 0.540164689380432  | 0.535128052673909  | 0.545201335923813  occ= 0
MO #41  energy= 0.540206216642846  | 0.535171415815655  | 0.545241027895846  occ= 0
MO #42  energy= 0.567177862381147  | 0.548393352097561  | 0.585962355578818  occ= 0
MO #43  energy= 0.574221346452598  | 0.562265942558242  | 0.586176750346959  occ= 0
MO #44  energy= 0.574405926833355  | 0.562433815446681  | 0.586378042337327  occ= 0
MO #45  energy= 0.579979615015246  | 0.566112404558294  | 0.593846825472212  occ= 0
MO #46  energy= 0.586749733097903  | 0.574209897135312  | 0.599289596405518  occ= 0
MO #47  energy= 0.625548532855753  | 0.613623347900006  | 0.637473717811518  occ= 0
MO #48  energy= 0.626679327874498  | 0.606921171931547  | 0.646437505785883  occ= 0
MO #49  energy= 0.631141574132561  | 0.606167154334781  | 0.656116057165     occ= 0
MO #50  energy= 0.631835161450255  | 0.607371564387126  | 0.656298839003235  occ= 0
MO #51  energy= 0.647033182086793  | 0.62556675348679   | 0.668499599546367  occ= 0
MO #52  energy= 0.704713392528502  | 0.698983320792473  | 0.710443485429742  occ= 0
MO #53  energy= 0.728015004496632  | 0.719947396501592  | 0.736082639546096  occ= 0
MO #54  energy= 0.729595550450501  | 0.723969746498832  | 0.735221354402181  occ= 0
MO #55  energy= 0.807518549578153  | 0.779576445624756  | 0.835460643855454  occ= 0
MO #56  energy= 0.808483321737144  | 0.780543596874399  | 0.836423044048494  occ= 0
MO #57  energy= 0.837643901652359  | 0.819159021840347  | 0.856128791677121  occ= 0
MO #58  energy= 0.842641195916021  | 0.831621548248467  | 0.853660843583591  occ= 0
MO #59  energy= 0.927584839000899  | 0.922890162948868  | 0.93227951488785   occ= 0
MO #60  energy= 1.29914584200657   | 1.28711479760647   | 1.31117688451571   occ= 0
MO #61  energy= 1.32995779843016   | 1.29621735183533   | 1.36369822010514   occ= 0
MO #62  energy= 1.33939664870081   | 1.31986354026485   | 1.3589297571368    occ= 0
MO #63  energy= 1.40258142160007   | 1.40069799312609   | 1.40446485007637   occ= 0
MO #64  energy= 1.40258195724126   | 1.40069988453926   | 1.40446402994325   occ= 0
MO #65  energy= 1.50880166215308   | 1.49717175494293   | 1.52043157072259   occ= 0
MO #66  energy= 1.50890410729795   | 1.49730642569995   | 1.52050179115982   occ= 0
MO #67  energy= 1.5749288944963    | 1.56600565360209   | 1.58385213667848   occ= 0
MO #68  energy= 1.6023761813469    | 1.59547758690063   | 1.60927477579317   occ= 0
MO #69  energy= 1.60575630863574   | 1.59097017874872   | 1.6205424352637    occ= 0
MO #70  energy= 1.67639229953511   | 1.67468905880964   | 1.67809553962812   occ= 0
MO #71  energy= 1.67639811695039   | 1.67473765184748   | 1.67805858131218   occ= 0
MO #72  energy= 1.72202982208677   | 1.70644334983116   | 1.73761629538478   occ= 0
MO #73  energy= 1.72994641135903   | 1.68016066782578   | 1.77973215489229   occ= 0
MO #74  energy= 1.72998976713465   | 1.68006011908783   | 1.77991941450254   occ= 0
MO #75  energy= 1.7728147119797    | 1.75090222712466   | 1.79472719683476   occ= 0
MO #76  energy= 1.78073280680114   | 1.75184365498923   | 1.80962195931124   occ= 0
MO #77  energy= 1.84480517999627   | 1.82447092971625   | 1.86513945451095   occ= 0
MO #78  energy= 1.88320739010429   | 1.8569839910114    | 1.90943078720579   occ= 0
MO #79  energy= 1.88324830062437   | 1.85717015323894   | 1.90932644747644   occ= 0
MO #80  energy= 1.98969770040604   | 1.97337595944562   | 2.00601941156825   occ= 0
MO #81  energy= 2.00741356905946   | 1.99619799284233   | 2.0186291452766    occ= 0
MO #82  energy= 2.0094379735378    | 1.98338483404671   | 2.03549112401969   occ= 0
MO #83  energy= 2.10110050554184   | 2.08033352744183   | 2.12186748368571   occ= 0
MO #84  energy= 2.10110052157394   | 2.08033357054799   | 2.12186747263882   occ= 0
MO #85  energy= 2.21833327123468   | 2.20351799307772   | 2.23314854961869   occ= 0
MO #86  energy= 2.21833582398565   | 2.20351602105942   | 2.23315562691187   occ= 0
MO #87  energy= 2.29509727257688   | 2.28413761955785   | 2.30605693447783   occ= 0
MO #88  energy= 2.37946033889106   | 2.37280803062708   | 2.38611264715503   occ= 0
MO #89  energy= 2.3859754001653    | 2.37499114855505   | 2.39695964582411   occ= 0
MO #90  energy= 2.58329695442956   | 2.56989948914989   | 2.59669442062643   occ= 0
MO #91  energy= 2.58350117563595   | 2.57008548655802   | 2.59691686565548   occ= 0
MO #92  energy= 2.66171386174333   | 2.65563668271282   | 2.66779104077386   occ= 0
MO #93  energy= 2.66352299397592   | 2.64921292944034   | 2.67783305577729   occ= 0
MO #94  energy= 2.68439082446321   | 2.65606147282911   | 2.71272017446025   occ= 0
MO #95  energy= 2.93639003179187   | 2.86418320730378   | 3.00859685390433   occ= 0
MO #96  energy= 2.93664513426078   | 2.86522717673528   | 3.0080630846047    occ= 0
MO #97  energy= 3.03086329338996   | 3.01060708535844   | 3.05111948784502   occ= 0
MO #98  energy= 3.36989398303489   | 3.32961088237536   | 3.410177068312     occ= 0
MO #99  energy= 3.37321506832293   | 3.35822194259976   | 3.38820819404611   occ= 0
MO #100 energy= 3.73050339626775   | 3.72959436511004   | 3.73141242742588   occ= 0
MO #101 energy= 3.73050339670811   | 3.72959436609515   | 3.7314124273214    occ= 0
MO #102 energy= 3.87647874929406   | 3.87267607704369   | 3.88028142154598   occ= 0
MO #103 energy= 3.87647890894054   | 3.87267636251464   | 3.88028145536644   occ= 0
MO #104 energy= 3.93789041798278   | 3.92887667516183   | 3.94690415026199   occ= 0
MO #105 energy= 4.13296805755449   | 4.13179521996339   | 4.13414089514559   occ= 0
MO #106 energy= 4.13296871109298   | 4.13179452822055   | 4.13414289396535   occ= 0
MO #107 energy= 4.16635769267518   | 4.16207701256671   | 4.17063837241665   occ= 0
MO #108 energy= 4.16639294696542   | 4.16212807404524   | 4.17065781834695   occ= 0
MO #109 energy= 4.22091575761214   | 4.21394779544001   | 4.22788371978427   occ= 0
MO #110 energy= 4.22555685199873   | 4.20986735176388   | 4.2412463437711    occ= 0
MO #111 energy= 4.24349641491378   | 4.23278703849893   | 4.25420578960195   occ= 0
MO #112 energy= 4.29974518716797   | 4.29793152522993   | 4.30155884902946   occ= 0
MO #113 energy= 4.29984467013464   | 4.29796524138516   | 4.30172409821716   occ= 0
MO #114 energy= 4.39505904382328   | 4.38143214427687   | 4.40868594336969   occ= 0
MO #115 energy= 4.40151226981792   | 4.37919099830478   | 4.42383353766781   occ= 0
MO #116 energy= 4.44108617465809   | 4.42428313692949   | 4.45788921092289   occ= 0
MO #117 energy= 4.55409393566503   | 4.51827454317147   | 4.58991333006552   occ= 0
MO #118 energy= 4.55422648461898   | 4.51847248002037   | 4.58998049093808   occ= 0
MO #119 energy= 4.59188743340905   | 4.50208249575937   | 4.68169237105875   occ= 0
MO #120 energy= 4.59191072189349   | 4.50204688832963   | 4.6817745553352    occ= 0
MO #121 energy= 4.66537387148927   | 4.64414610968833   | 4.6866016332902    occ= 0
MO #122 energy= 4.67121930518263   | 4.63226032456981   | 4.71017828555896   occ= 0
MO #123 energy= 4.67334091279655   | 4.64440194095978   | 4.70227988362992   occ= 0
MO #124 energy= 4.76642593960355   | 4.73084253867652   | 4.80200933874627   occ= 0
MO #125 energy= 4.76653638484805   | 4.7307626080027    | 4.80231015981559   occ= 0
MO #126 energy= 5.19678987998312   | 5.18556450887876   | 5.2080152480479    occ= 0
MO #127 energy= 5.22676728743012   | 5.20170982209778   | 5.25182475276247   occ= 0
MO #128 energy= 5.2400006601487    | 5.19796379599854   | 5.28203753035313   occ= 0
MO #129 energy= 5.42425253431255   | 5.39932761074315   | 5.44917745788197   occ= 0
MO #130 energy= 5.44063595955275   | 5.40663656015919   | 5.47463536046713   occ= 0
MO #131 energy= 5.74852226130665   | 5.72234192493068   | 5.7747025988708    occ= 0
MO #132 energy= 6.04983452357727   | 6.02355012794292   | 6.07611891921176   occ= 0
MO #133 energy= 6.04983452364742   | 6.02355012774848   | 6.07611891954636   occ= 0
MO #134 energy= 6.06249072404235   | 6.04101152503091   | 6.08396992306438   occ= 0
MO #135 energy= 6.06249073084534   | 6.04101151431552   | 6.08396994738542   occ= 0
MO #136 energy= 6.23344677148103   | 6.21018694943765   | 6.25670659343442   occ= 0
MO #137 energy= 6.23345014385391   | 6.21018598377204   | 6.25671430393578   occ= 0
MO #138 energy= 6.26672712669902   | 6.21866653947793   | 6.31478771375953   occ= 0
MO #139 energy= 6.26672717944957   | 6.21866658455356   | 6.31478777419756   occ= 0
MO #140 energy= 6.29362257854765   | 6.27320714624736   | 6.31403800950122   occ= 0
MO #141 energy= 6.34134004693074   | 6.3089123207431    | 6.37376777219992   occ= 0
MO #142 energy= 6.34134846541969   | 6.30890039411007   | 6.37379653672932   occ= 0
MO #143 energy= 6.43968044311533   | 6.40821914538455   | 6.47114174159005   occ= 0
MO #144 energy= 6.43985639851573   | 6.40817560636045   | 6.47153719127897   occ= 0
MO #145 energy= 6.67383893633136   | 6.65865461505566   | 6.68902325986976   occ= 0
MO #146 energy= 6.72873506735313   | 6.71194401742278   | 6.74552611728349   occ= 0
MO #147 energy= 6.74645160825946   | 6.71771651485431   | 6.77518670237637   occ= 0
MO #148 energy= 6.84509025003902   | 6.82889852916753   | 6.86128197082812   occ= 0
MO #149 energy= 6.84553875515549   | 6.82900040723243   | 6.86207710297668   occ= 0
MO #150 energy= 6.87854796688466   | 6.86574307280775   | 6.89135286096157   occ= 0
MO #151 energy= 6.8927191804154    | 6.86707939567344   | 6.9183589664171    occ= 0
MO #152 energy= 7.07951727187774   | 7.05970720132779   | 7.09932734721006   occ= 0
MO #153 energy= 8.5506956556725    | 8.49633400708831   | 8.60505730565215   occ= 0
MO #154 energy= 8.55108532600391   | 8.49596745651327   | 8.60620319680367   occ= 0
MO #155 energy= 9.1405849870494    | 9.09791437101037   | 9.18325560256201   occ= 0
MO #156 energy= 9.1508723892031    | 9.14562065883211   | 9.15612411957408   occ= 0
MO #157 energy= 9.15787626239604   | 9.14409060365294   | 9.17166192050634   occ= 0
MO #158 energy= 10.3656820420843   | 10.3591175758422   | 10.3722465081753   occ= 0
MO #159 energy= 10.4228082776747   | 10.4088672809789   | 10.4367492743704   occ= 0
MO #160 energy= 10.4356288404803   | 10.4033681495947   | 10.467889531529    occ= 0
MO #161 energy= 10.6898267063813   | 10.6889089109467   | 10.6907445018162   occ= 0
MO #162 energy= 10.6898267144086   | 10.688908916677    | 10.6907445121404   occ= 0
MO #163 energy= 10.7746041022318   | 10.7737623538566   | 10.775445850607    occ= 0
MO #164 energy= 10.7746051340167   | 10.773763202819    | 10.7754470652223   occ= 0
MO #165 energy= 10.9016721816134   | 10.8980644651377   | 10.905279898558    occ= 0
MO #166 energy= 10.9804832088201   | 10.9794471123669   | 10.9815193052821   occ= 0
MO #167 energy= 10.9808760972569   | 10.9797745010059   | 10.9819776935155   occ= 0
MO #168 energy= 11.070795684824    | 11.0698601895346   | 11.0717311801135   occ= 0
MO #169 energy= 11.0800221864263   | 11.0782895093344   | 11.08175486352     occ= 0
MO #170 energy= 11.6518885917465   | 11.6504233699793   | 11.6533538135138   occ= 0
MO #171 energy= 11.6518887293208   | 11.650423343012    | 11.6533541156306   occ= 0
MO #172 energy= 11.7463127124779   | 11.7263887234756   | 11.7662367018664   occ= 0
MO #173 energy= 11.808832899298    | 11.8073950999971   | 11.8102706986113   occ= 0
MO #174 energy= 11.8089176344338   | 11.8074058724004   | 11.8104293964963   occ= 0
MO #175 energy= 12.0294175570661   | 12.0017541919883   | 12.0570809222129   occ= 0
MO #176 energy= 12.2810985508831   | 12.2571409492349   | 12.3050561525313   occ= 0
MO #177 energy= 12.2925098401785   | 12.2442782517276   | 12.3407414271386   occ= 0
MO #178 energy= 12.3030184370075   | 12.2268041126478   | 12.3792327613671   occ= 0
MO #179 energy= 12.3035232399473   | 12.2304604459114   | 12.3765860341045   occ= 0
MO #180 energy= 12.3475936127839   | 12.2877333428232   | 12.4074538817011   occ= 0
MO #181 energy= 12.347737991609    | 12.287886275561    | 12.4075897063698   occ= 0
MO #182 energy= 12.6597124002987   | 12.6446508465484   | 12.6747739540489   occ= 0
MO #183 energy= 12.6706529516768   | 12.6665044847991   | 12.6748014185035   occ= 0
MO #184 energy= 12.6706923546429   | 12.6665223158361   | 12.6748623934028   occ= 0
MO #185 energy= 12.671082320451    | 12.6431722665794   | 12.6989923736195   occ= 0
MO #186 energy= 12.8104184793306   | 12.8041684864999   | 12.8166684722681   occ= 0
MO #187 energy= 12.9023896879289   | 12.896355090839    | 12.9084242850188   occ= 0
MO #188 energy= 12.9126918988391   | 12.9032861210777   | 12.9220976766008   occ= 0
MO #189 energy= 14.0127515076793   | 13.9931821312587   | 14.032320883979    occ= 0
MO #190 energy= 14.2041776050849   | 14.1691744255324   | 14.2391807846375   occ= 0
MO #191 energy= 14.229555278509    | 14.1875254781983   | 14.2715850788552   occ= 0
MO #192 energy= 15.0789966541521   | 15.0501459888233   | 15.1078473195482   occ= 0
MO #193 energy= 16.9755166039699   | 16.9169888773264   | 17.0340443305321   occ= 0
MO #194 energy= 16.9755168492544   | 16.9169899728187   | 17.0340437256129   occ= 0
MO #195 energy= 16.9842388360408   | 16.9343139999933   | 17.0341636720883   occ= 0
MO #196 energy= 16.9842491154793   | 16.9343129935652   | 17.0341852363895   occ= 0
MO #197 energy= 17.0433135860363   | 17.0007260713432   | 17.0859011000872   occ= 0
MO #198 energy= 17.0440774840955   | 17.0004659729705   | 17.0876889947051   occ= 0
MO #199 energy= 17.221994228239    | 17.1923707739427   | 17.2516176825352   occ= 0
MO #200 energy= 17.2474710916513   | 17.199785527063    | 17.2951566557876   occ= 0
MO #201 energy= 17.3295774775961   | 17.2939711852102   | 17.3651837694477   occ= 0
MO #202 energy= 17.9062695149732   | 17.8693923091512   | 17.9431467207835   occ= 0
MO #203 energy= 17.9062700893234   | 17.8693923825373   | 17.9431477960972   occ= 0
MO #204 energy= 17.9163215811602   | 17.8745143591935   | 17.958128803127    occ= 0
MO #205 energy= 17.9163215875245   | 17.8745143114312   | 17.9581288636176   occ= 0
MO #206 energy= 17.9568848449717   | 17.9240958079411   | 17.9896738820023   occ= 0
MO #207 energy= 17.956908649032    | 17.9240963996534   | 17.9897208983941   occ= 0
MO #208 energy= 18.1211685022484   | 18.1000061108095   | 18.1423308936802   occ= 0
MO #209 energy= 18.1586668039909   | 18.1289848907385   | 18.1883487172457   occ= 0
MO #210 energy= 18.1656682732271   | 18.132503157142    | 18.1988333893057   occ= 0
MO #211 energy= 18.338012422004    | 18.315995605956    | 18.3600292380519   occ= 0
MO #212 energy= 18.36813644354     | 18.3344817513082   | 18.4017911357349   occ= 0
MO #213 energy= 18.8379759922451   | 18.8206000926225   | 18.8553518918885   occ= 0
MO #214 energy= 20.455054986188    | 20.4533547514101   | 20.4567552209752   occ= 0
 ** Mulliken pop on meta-lowdin orthogonal AOs  **
 ** Mulliken pop  **
pop of  0Cr 3s        1.99966
pop of  0Cr 4s        0.73127
pop of  0Cr 5s        0.01095
pop of  0Cr 6s        0.00461
pop of  0Cr 7s        0.00049
pop of  0Cr 8s        0.00290
pop of  0Cr 9s        0.00210
pop of  0Cr 3px       1.99940
pop of  0Cr 3py       1.99952
pop of  0Cr 3pz       1.99783
pop of  0Cr 4px       0.01151
pop of  0Cr 4py       0.02711
pop of  0Cr 4pz       0.01744
pop of  0Cr 5px       0.00060
pop of  0Cr 5py       0.00122
pop of  0Cr 5pz       0.00249
pop of  0Cr 6px       0.00001
pop of  0Cr 6py       0.00003
pop of  0Cr 6pz       0.00047
pop of  0Cr 7px       0.00000
pop of  0Cr 7py       0.00000
pop of  0Cr 7pz       0.00023
pop of  0Cr 8px       0.00028
pop of  0Cr 8py       0.00062
pop of  0Cr 8pz       0.00166
pop of  0Cr 9px       0.00005
pop of  0Cr 9py       0.00013
pop of  0Cr 9pz       0.00018
pop of  0Cr 3dxy      0.99671
pop of  0Cr 3dyz      1.06335
pop of  0Cr 3dz^2     0.78314
pop of  0Cr 3dxz      0.30940
pop of  0Cr 3dx2-y2    0.98212
pop of  0Cr 4dxy      0.00202
pop of  0Cr 4dyz      0.00194
pop of  0Cr 4dz^2     0.00046
pop of  0Cr 4dxz      0.00271
pop of  0Cr 4dx2-y2    0.00216
pop of  0Cr 5dxy      0.00013
pop of  0Cr 5dyz      0.00006
pop of  0Cr 5dz^2     0.00114
pop of  0Cr 5dxz      0.00003
pop of  0Cr 5dx2-y2    0.00014
pop of  0Cr 6dxy      0.00001
pop of  0Cr 6dyz      0.00005
pop of  0Cr 6dz^2     0.00010
pop of  0Cr 6dxz      0.00000
pop of  0Cr 6dx2-y2    0.00001
pop of  0Cr 7dxy      0.00038
pop of  0Cr 7dyz      0.00070
pop of  0Cr 7dz^2     0.00048
pop of  0Cr 7dxz      0.00040
pop of  0Cr 7dx2-y2    0.00039
pop of  0Cr 8dxy      0.00003
pop of  0Cr 8dyz      0.00006
pop of  0Cr 8dz^2     0.00011
pop of  0Cr 8dxz      0.00003
pop of  0Cr 8dx2-y2    0.00003
pop of  0Cr 4fy^3     0.00001
pop of  0Cr 4fxyz     0.00000
pop of  0Cr 4fyz^2    0.00003
pop of  0Cr 4fz^3     0.00004
pop of  0Cr 4fxz^2    0.00002
pop of  0Cr 4fzx^2    0.00001
pop of  0Cr 4fx^3     0.00000
pop of  0Cr 5fy^3     0.00001
pop of  0Cr 5fxyz     0.00003
pop of  0Cr 5fyz^2    0.00027
pop of  0Cr 5fz^3     0.00042
pop of  0Cr 5fxz^2    0.00027
pop of  0Cr 5fzx^2    0.00005
pop of  0Cr 5fx^3     0.00001
pop of  0Cr 6fy^3     0.00000
pop of  0Cr 6fxyz     0.00012
pop of  0Cr 6fyz^2    0.00042
pop of  0Cr 6fz^3     0.00129
pop of  0Cr 6fxz^2    0.00049
pop of  0Cr 6fzx^2    0.00016
pop of  0Cr 6fx^3     0.00000
pop of  0Cr 7fy^3     0.00000
pop of  0Cr 7fxyz     0.00005
pop of  0Cr 7fyz^2    0.00018
pop of  0Cr 7fz^3     0.00167
pop of  0Cr 7fxz^2    0.00010
pop of  0Cr 7fzx^2    0.00008
pop of  0Cr 7fx^3     0.00000
pop of  0Cr 5g-4      0.00000
pop of  0Cr 5g-3      0.00000
pop of  0Cr 5g-2      0.00000
pop of  0Cr 5g-1      0.00000
pop of  0Cr 5g 0      0.00001
pop of  0Cr 5g 1      0.00000
pop of  0Cr 5g 2      0.00000
pop of  0Cr 5g 3      0.00000
pop of  0Cr 5g 4      0.00000
pop of  0Cr 6g-4      0.00000
pop of  0Cr 6g-3      0.00000
pop of  0Cr 6g-2      0.00000
pop of  0Cr 6g-1      0.00004
pop of  0Cr 6g 0      0.00005
pop of  0Cr 6g 1      0.00004
pop of  0Cr 6g 2      0.00000
pop of  0Cr 6g 3      0.00000
pop of  0Cr 6g 4      0.00000
pop of  0Cr 7g-4      0.00000
pop of  0Cr 7g-3      0.00000
pop of  0Cr 7g-2      0.00000
pop of  0Cr 7g-1      0.00023
pop of  0Cr 7g 0      0.00033
pop of  0Cr 7g 1      0.00000
pop of  0Cr 7g 2      0.00001
pop of  0Cr 7g 3      0.00000
pop of  0Cr 7g 4      0.00000
pop of  0Cr 6h-5      0.00000
pop of  0Cr 6h-4      0.00000
pop of  0Cr 6h-3      0.00000
pop of  0Cr 6h-2      0.00000
pop of  0Cr 6h-1      0.00000
pop of  0Cr 6h 0      0.00000
pop of  0Cr 6h 1      0.00000
pop of  0Cr 6h 2      0.00000
pop of  0Cr 6h 3      0.00000
pop of  0Cr 6h 4      0.00000
pop of  0Cr 6h 5      0.00000
pop of  0Cr 7h-5      0.00000
pop of  0Cr 7h-4      0.00000
pop of  0Cr 7h-3      0.00000
pop of  0Cr 7h-2      0.00000
pop of  0Cr 7h-1      0.00003
pop of  0Cr 7h 0      0.00003
pop of  0Cr 7h 1      0.00000
pop of  0Cr 7h 2      0.00000
pop of  0Cr 7h 3      0.00000
pop of  0Cr 7h 4      0.00000
pop of  0Cr 7h 5      0.00000
pop of  1O 2s        1.87872
pop of  1O 3s        0.00079
pop of  1O 4s        0.00018
pop of  1O 5s        0.00270
pop of  1O 6s        0.00757
pop of  1O 2px       1.65063
pop of  1O 2py       1.86355
pop of  1O 2pz       1.54863
pop of  1O 3px       0.00135
pop of  1O 3py       0.00261
pop of  1O 3pz       0.00045
pop of  1O 4px       0.00038
pop of  1O 4py       0.00049
pop of  1O 4pz       0.00038
pop of  1O 5px       0.00726
pop of  1O 5py       0.01474
pop of  1O 5pz       0.00252
pop of  1O 6px       0.00372
pop of  1O 6py       0.00806
pop of  1O 6pz       0.00306
pop of  1O 3dxy      0.00000
pop of  1O 3dyz      0.00007
pop of  1O 3dz^2     0.00014
pop of  1O 3dxz      0.00010
pop of  1O 3dx2-y2    0.00000
pop of  1O 4dxy      0.00000
pop of  1O 4dyz      0.00078
pop of  1O 4dz^2     0.00130
pop of  1O 4dxz      0.00113
pop of  1O 4dx2-y2    0.00000
pop of  1O 5dxy      0.00002
pop of  1O 5dyz      0.00420
pop of  1O 5dz^2     0.00247
pop of  1O 5dxz      0.00445
pop of  1O 5dx2-y2    0.00002
pop of  1O 6dxy      0.00027
pop of  1O 6dyz      0.00833
pop of  1O 6dz^2     0.00342
pop of  1O 6dxz      0.00502
pop of  1O 6dx2-y2    0.00028
pop of  1O 4fy^3     0.00000
pop of  1O 4fxyz     0.00000
pop of  1O 4fyz^2    0.00001
pop of  1O 4fz^3     0.00003
pop of  1O 4fxz^2    0.00001
pop of  1O 4fzx^2    0.00000
pop of  1O 4fx^3     0.00000
pop of  1O 5fy^3     0.00000
pop of  1O 5fxyz     0.00000
pop of  1O 5fyz^2    0.00022
pop of  1O 5fz^3     0.00013
pop of  1O 5fxz^2    0.00021
pop of  1O 5fzx^2    0.00000
pop of  1O 5fx^3     0.00000
pop of  1O 6fy^3     0.00000
pop of  1O 6fxyz     0.00018
pop of  1O 6fyz^2    0.00089
pop of  1O 6fz^3     0.00023
pop of  1O 6fxz^2    0.00036
pop of  1O 6fzx^2    0.00019
pop of  1O 6fx^3     0.00000
pop of  1O 5g-4      0.00000
pop of  1O 5g-3      0.00000
pop of  1O 5g-2      0.00000
pop of  1O 5g-1      0.00000
pop of  1O 5g 0      0.00001
pop of  1O 5g 1      0.00001
pop of  1O 5g 2      0.00000
pop of  1O 5g 3      0.00000
pop of  1O 5g 4      0.00000
pop of  1O 6g-4      0.00000
pop of  1O 6g-3      0.00000
pop of  1O 6g-2      0.00002
pop of  1O 6g-1      0.00002
pop of  1O 6g 0      0.00003
pop of  1O 6g 1      0.00001
pop of  1O 6g 2      0.00002
pop of  1O 6g 3      0.00000
pop of  1O 6g 4      0.00000
 ** Mulliken atomic charges  **
charge of  0Cr =      1.03239
charge of  1O =     -1.03239

******** <class 'pyscf.mcscf.mc1step.CASSCF'> flags ********
CAS (7e+3e, 9o), ncore = 5, nvir = 200
max_cycle_macro = 50
max_cycle_micro = 4
conv_tol = 1e-07
conv_tol_grad = None
orbital rotation max_stepsize = 0.02
augmented hessian ah_max_cycle = 30
augmented hessian ah_conv_tol = 1e-12
augmented hessian ah_linear dependence = 1e-14
augmented hessian ah_level shift = 0
augmented hessian ah_start_tol = 2.5
augmented hessian ah_start_cycle = 3
augmented hessian ah_grad_trust_region = 3
kf_trust_region = 3
kf_interval = 4
ci_response_space = 4
ci_grad_trust_region = 3
with_dep4 0
natorb = False
canonicalization = True
chkfile = ./scratch/8307/tmpSuXqpd
max_memory 4000 MB (current use 2219 MB)
internal_rotation = False

******** SHCI flags ********
executable             = /home/bamu3429/softwares/dice/Dice
mpiprefix              = mpirun -np 28
scratchDirectory       = ./scratch/8307
integralFile           = ./FCIDUMP
configFile             = ./input.dat
outputFile             = ./output.dat
maxIter                = 6
sweep_iter             = []
sweep_epsilon          = []
nPTiter                = 0
Stochastic             = True
fullrestart            = False
restart                = False
num_thrds              = 12
memory                 = None

CASCI E = -101.845355746946  S^2 = 6.0000000
Set conv_tol_grad to 0.000316228
macro iter 1 (21 JK  4 micro), CASSCF E = -101.869225757897  dE = -0.023870011  S^2 = 6.0000000
               |grad[o]|=0.00643  |grad[c]|= None  |ddm|=0.117
macro iter 2 (21 JK  4 micro), CASSCF E = -101.909965207531  dE = -0.04073945  S^2 = 6.0000000
               |grad[o]|=0.0892  |grad[c]|= None  |ddm|=0.156
macro iter 3 (21 JK  4 micro), CASSCF E = -101.932957447017  dE = -0.022992239  S^2 = 6.0000000
               |grad[o]|=0.0969  |grad[c]|= None  |ddm|=0.0422
macro iter 4 (21 JK  4 micro), CASSCF E = -101.957711387157  dE = -0.02475394  S^2 = 6.0000000
               |grad[o]|=0.0833  |grad[c]|= None  |ddm|=0.0826
macro iter 5 (20 JK  4 micro), CASSCF E = -101.972589034119  dE = -0.014877647  S^2 = 6.0000000
               |grad[o]|=0.0761  |grad[c]|= None  |ddm|=0.131
macro iter 6 (11 JK  4 micro), CASSCF E = -101.973658790564  dE = -0.0010697564  S^2 = 6.0000000
               |grad[o]|=0.0287  |grad[c]|= None  |ddm|=0.0752
macro iter 7 (10 JK  4 micro), CASSCF E = -101.973668324638  dE = -9.5340734e-06  S^2 = 6.0000000
               |grad[o]|=0.00199  |grad[c]|= None  |ddm|=0.00693
macro iter 8 (3 JK  1 micro), CASSCF E = -101.973668403927  dE = -7.9288753e-08  S^2 = 6.0000000
               |grad[o]|=0.000227  |grad[c]|= None  |ddm|=0.000406
1-step CASSCF converged in 8 macro (128 JK 29 micro) steps
CASSCF canonicalization
CASSCF energy = -101.973668403927


--------------------------------------------------
                 ICMPSPT CALCULATION              
--------------------------------------------------

Perturbation type: MRLCC
With fully internally contracted scheme
With third order correction

Preparing necessary RDMs
......production of RDMs took      40.21 sec
Reading binary 4RDM from DICE
......reading the RDM took         28.14 sec

(GOOD) Trace 4RDM:   5040.0 =   10*    9*    8*    7
(GOOD) Trace 3RDM:    720.0 =   10*    9*    8
(GOOD) Trace 2RDM:     90.0 =   10*    9
(GOOD) Trace 1RDM:     10.0 =   10

Producing the integrals
......production of INT took    3592.23 sec

Energy_core =  -104.445002959
Energy      =  -101.973668404

WARNING: Have to use natural orbitals from CAASCF
         offdiagonal elements: 0.644423467793

Basic ingredients written to int/
......savings of INGREDIENTS took     782.78 sec

Second-order:
perturber CCVV --        -0.126590273
perturber CCAV --        -0.059889662
perturber ACVV --        -0.210393887
perturber CCAA --        -0.040947047
perturber AAVV --        -0.194332624
perturber CAAV --        -0.152723777
perturber AAAV --        -0.062578441
perturber AAAC --        -0.004571473
Total:                   -0.852027185

Third-order:              0.001587687

Total PT       --        -0.850439498

