 &FCI NORB=9 ,NELEC=9 ,MS2=3,
  ORBSYM=1,1,1,1,1,1,1,1,1,
  ISYM=1,
 &END
  6.531392589003e-01    1  1  1  1
  2.947260854730e-02    2  1  2  1
  5.883788313994e-01    2  2  1  1
  6.492199485218e-01    2  2  2  2
  2.947260854730e-02    3  1  3  1
 -4.678172922832e-10    3  2  2  2
  2.881249996347e-02    3  2  3  2
  5.883788313994e-01    3  3  1  1
  5.915942547850e-01    3  3  2  2
  4.678185909301e-10    3  3  3  2
  6.492199485218e-01    3  3  3  3
  1.643436982395e-02    4  1  1  1
  7.112062180809e-03    4  1  2  2
  7.112062180809e-03    4  1  3  3
  7.933019936761e-03    4  1  4  1
 -1.709530728028e-03    4  2  2  1
 -3.110492982575e-07    4  2  3  1
  1.952430639447e-03    4  2  4  2
  3.110492982042e-07    4  3  2  1
 -1.709530728028e-03    4  3  3  1
  1.952430639447e-03    4  3  4  3
  2.538245318343e-01    4  4  1  1
  2.307716267215e-01    4  4  2  2
  2.307716267215e-01    4  4  3  3
  1.118504306392e-02    4  4  4  1
  2.820934490234e-01    4  4  4  4
 -3.810385474664e-04    5  1  2  2
  8.311708908434e-05    5  1  3  2
  3.810385474682e-04    5  1  3  3
  9.540011686827e-03    5  1  5  1
  1.852196910420e-03    5  2  2  1
 -4.178710434927e-04    5  2  3  1
 -5.629174857122e-04    5  2  4  2
  1.272406396950e-04    5  2  4  3
  4.997646655173e-03    5  2  5  2
 -4.178710434927e-04    5  3  2  1
 -1.852196910420e-03    5  3  3  1
  1.272406396950e-04    5  3  4  2
  5.629174857122e-04    5  3  4  3
  4.997646655173e-03    5  3  5  3
 -2.450009587116e-03    5  4  2  2
  5.509040058511e-04    5  4  3  2
  2.450009587115e-03    5  4  3  3
  4.495784043220e-03    5  4  5  1
  1.193719767801e-02    5  4  5  4
  4.122943515297e-01    5  5  1  1
  3.469535898511e-01    5  5  2  2
  3.469535898511e-01    5  5  3  3
  4.317333240296e-02    5  5  4  1
  3.471924907053e-01    5  5  4  4
  7.090208606572e-01    5  5  5  5
  8.311679885515e-05    6  1  2  2
  3.810380745264e-04    6  1  3  2
 -8.311679885590e-05    6  1  3  3
 -6.863188048081e-12    6  1  5  1
  4.746424458802e-08    6  1  5  4
  9.540008826206e-03    6  1  6  1
 -4.178723866239e-04    6  2  2  1
 -1.852191464269e-03    6  2  3  1
  1.272412484246e-04    6  2  4  2
  5.629149222166e-04    6  2  4  3
 -1.414429467863e-09    6  2  5  2
  2.420828900390e-03    6  2  5  3
  4.997640203616e-03    6  2  6  2
 -1.852191464269e-03    6  3  2  1
  4.178723866238e-04    6  3  3  1
  5.629149222167e-04    6  3  4  2
 -1.272412484245e-04    6  3  4  3
 -2.420828900390e-03    6  3  5  2
 -1.414429471914e-09    6  3  5  3
  4.997640203616e-03    6  3  6  3
  5.509061955364e-04    6  4  2  2
  2.450000861389e-03    6  4  3  2
 -5.509061955340e-04    6  4  3  3
 -4.710330493084e-08    6  4  5  1
  3.703476816576e-10    6  4  5  4
  4.495784759243e-03    6  4  6  1
  1.193720505178e-02    6  4  6  4
  2.680244754139e-10    6  5  1  1
 -8.693272851198e-10    6  5  2  2
 -8.693272767291e-10    6  5  3  3
  3.468198250015e-10    6  5  4  1
  1.005893578900e-09    6  5  4  4
  3.188373266628e-09    6  5  5  5
  1.504001672450e-02    6  5  6  5
  4.122943298086e-01    6  6  1  1
  3.469535713384e-01    6  6  2  2
  3.469535713384e-01    6  6  3  3
  4.317332935564e-02    6  6  4  1
  3.471924897640e-01    6  6  4  4
  6.789407930525e-01    6  6  5  5
  3.188368877118e-09    6  6  6  5
  7.090207923457e-01    6  6  6  6
  6.481406060878e-06    7  1  2  1
  9.146727191651e-03    7  1  3  1
 -6.265063978868e-07    7  1  4  2
 -4.244556754952e-04    7  1  4  3
  4.091868100228e-04    7  1  5  2
  1.850296187821e-03    7  1  5  3
  1.850305121292e-03    7  1  6  2
 -4.091844028841e-04    7  1  6  3
  1.302783505793e-02    7  1  7  1
  1.128317024450e-04    7  2  1  1
  1.829401940664e-04    7  2  2  2
  1.150445102752e-02    7  2  3  2
  1.584317615633e-04    7  2  3  3
 -2.033718316794e-05    7  2  4  1
 -5.787077966324e-05    7  2  4  4
 -4.013885872337e-04    7  2  5  1
 -5.429056909517e-04    7  2  5  4
 -1.434077939896e-04    7  2  5  5
 -1.810467872662e-03    7  2  6  1
 -2.440487071163e-03    7  2  6  4
 -8.719315304420e-09    7  2  6  5
 -1.433986891296e-04    7  2  6  6
  1.209654250053e-02    7  2  7  2
  1.173550318616e-01    7  3  1  1
  1.463851120285e-01    7  3  2  2
  1.225657333120e-05    7  3  3  2
  1.693966311740e-01    7  3  3  3
 -1.440526244841e-02    7  3  4  1
 -3.854490673967e-02    7  3  4  4
 -1.810511250074e-03    7  3  5  1
 -2.440496980147e-03    7  3  5  4
 -9.543354626915e-02    7  3  5  5
  4.013989206273e-04    7  3  6  1
  5.429089973227e-04    7  3  6  4
  5.177148068375e-09    7  3  6  5
 -9.543351807671e-02    7  3  6  6
  1.649503255672e-04    7  3  7  2
  1.490688833973e-01    7  3  7  3
  3.119447748865e-07    7  4  2  1
  8.113586863718e-04    7  4  3  1
 -3.991611274625e-06    7  4  4  2
 -3.036927546952e-03    7  4  4  3
 -8.137371361287e-05    7  4  5  2
 -3.536187095136e-04    7  4  5  3
 -3.536024755934e-04    7  4  6  2
  8.137763546515e-05    7  4  6  3
 -6.293608444993e-05    7  4  7  1
  6.095262600204e-03    7  4  7  4
  7.508028897500e-04    7  5  2  1
  3.370239032451e-03    7  5  3  1
 -1.967652636369e-04    7  5  4  2
 -8.752426039522e-04    7  5  4  3
 -1.126258358527e-05    7  5  5  2
 -8.053016315854e-03    7  5  5  3
 -3.701374107385e-03    7  5  6  2
  5.412826142801e-06    7  5  6  3
 -2.192166428960e-03    7  5  7  1
  7.455251708723e-04    7  5  7  4
  1.834501507912e-02    7  5  7  5
  3.370225967276e-03    7  6  2  1
 -7.508043153541e-04    7  6  3  1
 -8.752184671707e-04    7  6  4  2
  1.967704608080e-04    7  6  4  3
  3.701325752363e-03    7  6  5  2
 -5.378617209772e-06    7  6  5  3
 -1.123638611613e-05    7  6  6  2
 -8.052949728191e-03    7  6  6  3
  4.833000758808e-04    7  6  7  1
 -1.687053513648e-04    7  6  7  4
 -5.165954009625e-08    7  6  7  5
  1.834480048627e-02    7  6  7  6
  5.184246244033e-01    7  7  1  1
  4.772029563946e-01    7  7  2  2
  3.955839076334e-05    7  7  3  2
  5.083202247968e-01    7  7  3  3
  2.877715169579e-02    7  7  4  1
  2.978116521686e-01    7  7  4  4
  4.647710733581e-03    7  7  5  1
  5.144593531310e-03    7  7  5  4
  5.272709213855e-01    7  7  5  5
 -1.021220412061e-03    7  7  6  1
 -1.135991927732e-03    7  7  6  4
 -2.055017722322e-08    7  7  6  5
  5.272708053110e-01    7  7  6  6
  3.479358006123e-06    7  7  7  2
  2.930491833780e-02    7  7  7  3
  5.615797886412e-01    7  7  7  7
  9.146727191651e-03    8  1  2  1
 -6.481406060912e-06    8  1  3  1
 -4.244556754952e-04    8  1  4  2
  6.265063979144e-07    8  1  4  3
 -1.850296187821e-03    8  1  5  2
  4.091868100229e-04    8  1  5  3
  4.091844028840e-04    8  1  6  2
  1.850305121291e-03    8  1  6  3
 -5.704137966672e-08    8  1  7  4
 -4.832938671636e-04    8  1  7  5
 -2.192148023012e-03    8  1  7  6
  1.302783505793e-02    8  1  8  1
  1.173550318616e-01    8  2  1  1
  1.693966311740e-01    8  2  2  2
 -1.225657333011e-05    8  2  3  2
  1.463851120285e-01    8  2  3  3
 -1.440526244841e-02    8  2  4  1
 -3.854490673967e-02    8  2  4  4
  1.810511250075e-03    8  2  5  1
  2.440496980147e-03    8  2  5  4
 -9.543354626915e-02    8  2  5  5
 -4.013989206275e-04    8  2  6  1
 -5.429089973238e-04    8  2  6  4
  5.177148030471e-09    8  2  6  5
 -9.543351807671e-02    8  2  6  6
  1.649513964424e-04    8  2  7  2
  1.248737082861e-01    8  2  7  3
  2.623899482903e-02    8  2  7  7
  1.490688833973e-01    8  2  8  2
 -1.128317024451e-04    8  3  1  1
 -1.584317615636e-04    8  3  2  2
  1.150445102752e-02    8  3  3  2
 -1.829401940670e-04    8  3  3  3
  2.033718316802e-05    8  3  4  1
  5.787077966357e-05    8  3  4  4
 -4.013885872337e-04    8  3  5  1
 -5.429056909518e-04    8  3  5  4
  1.434077939904e-04    8  3  5  5
 -1.810467872662e-03    8  3  6  1
 -2.440487071163e-03    8  3  6  4
  8.719315313802e-09    8  3  6  5
  1.433986891305e-04    8  3  6  6
  1.209613106231e-02    8  3  7  2
 -1.649513964431e-04    8  3  7  3
 -4.221785474336e-06    8  3  7  7
 -1.649503255679e-04    8  3  8  2
  1.209654250053e-02    8  3  8  3
  8.113586863718e-04    8  4  2  1
 -3.119447748232e-07    8  4  3  1
 -3.036927546952e-03    8  4  4  2
  3.991611274599e-06    8  4  4  3
  3.536187095136e-04    8  4  5  2
 -8.137371361291e-05    8  4  5  3
 -8.137763546530e-05    8  4  6  2
 -3.536024755935e-04    8  4  6  3
  5.704137962066e-08    8  4  7  1
  1.686924702512e-04    8  4  7  5
  7.454642510891e-04    8  4  7  6
 -6.293608444998e-05    8  4  8  1
  6.095262600204e-03    8  4  8  4
 -3.370239032451e-03    8  5  2  1
  7.508028897500e-04    8  5  3  1
  8.752426039522e-04    8  5  4  2
 -1.967652636368e-04    8  5  4  3
 -8.053016315854e-03    8  5  5  2
  1.126258358532e-05    8  5  5  3
  5.412826142767e-06    8  5  6  2
  3.701374107385e-03    8  5  6  3
 -4.832938671636e-04    8  5  7  1
  1.686924702511e-04    8  5  7  4
 -8.245376655314e-03    8  5  7  6
  2.192166428960e-03    8  5  8  1
 -7.455251708724e-04    8  5  8  4
  1.834501507912e-02    8  5  8  5
  7.508043153540e-04    8  6  2  1
  3.370225967276e-03    8  6  3  1
 -1.967704608081e-04    8  6  4  2
 -8.752184671707e-04    8  6  4  3
 -5.378617209770e-06    8  6  5  2
 -3.701325752363e-03    8  6  5  3
 -8.052949728191e-03    8  6  6  2
  1.123638611621e-05    8  6  6  3
 -2.192148023012e-03    8  6  7  1
  7.454642510891e-04    8  6  7  4
  8.245376655314e-03    8  6  7  5
 -4.833000758808e-04    8  6  8  1
  1.687053513651e-04    8  6  8  4
 -5.165954006994e-08    8  6  8  5
  1.834480048627e-02    8  6  8  6
  3.955980475257e-05    8  7  2  2
  1.555720003035e-02    8  7  3  2
 -3.955980475406e-05    8  7  3  3
  1.021205543009e-03    8  7  5  1
  1.135948459511e-03    8  7  5  4
  4.647645555866e-03    8  7  6  1
  5.144412193220e-03    8  7  6  4
  1.531894848179e-03    8  7  7  2
  3.729736452580e-07    8  7  7  3
 -5.448231823868e-09    8  7  7  7
 -3.729736456657e-07    8  7  8  2
  1.531894848180e-03    8  7  8  3
  1.884995642621e-02    8  7  8  7
  5.184246244033e-01    8  8  1  1
  5.083202247968e-01    8  8  2  2
 -3.955839076328e-05    8  8  3  2
  4.772029563946e-01    8  8  3  3
  2.877715169579e-02    8  8  4  1
  2.978116521686e-01    8  8  4  4
 -4.647710733581e-03    8  8  5  1
 -5.144593531312e-03    8  8  5  4
  5.272709213855e-01    8  8  5  5
  1.021220412060e-03    8  8  6  1
  1.135991927737e-03    8  8  6  4
 -2.055017714492e-08    8  8  6  5
  5.272708053110e-01    8  8  6  6
  4.221785474572e-06    8  8  7  2
  2.623899482903e-02    8  8  7  3
  5.238767176998e-01    8  8  7  7
  2.930491833780e-02    8  8  8  2
 -3.479358005621e-06    8  8  8  3
  5.448230380630e-09    8  8  8  7
  5.615797886412e-01    8  8  8  8
  1.420185866768e-01    9  1  1  1
  1.562268109138e-01    9  1  2  2
  1.562268109138e-01    9  1  3  3
 -1.993171236512e-02    9  1  4  1
 -5.439819657759e-02    9  1  4  4
 -1.343977308425e-01    9  1  5  5
 -2.327021013730e-09    9  1  6  5
 -1.343977306321e-01    9  1  6  6
  1.692763420420e-04    9  1  7  2
  1.407139587980e-01    9  1  7  3
  4.275110156358e-03    9  1  7  7
  1.407139587980e-01    9  1  8  2
 -1.692763420428e-04    9  1  8  3
  4.275110156357e-03    9  1  8  8
  1.906545037634e-01    9  1  9  1
  1.451438712689e-02    9  2  2  1
  2.045153621249e-06    9  2  3  1
 -6.204825833343e-04    9  2  4  2
 -6.383200883798e-07    9  2  4  3
  1.097091887074e-03    9  2  5  2
 -2.456727147069e-04    9  2  5  3
 -2.456727947774e-04    9  2  6  2
 -1.097092603471e-03    9  2  6  3
  8.347493417169e-06    9  2  7  1
  1.638827045635e-06    9  2  7  4
 -1.759691946764e-04    9  2  7  5
 -8.012630973822e-04    9  2  7  6
  9.771974214645e-03    9  2  8  1
  5.813792953757e-04    9  2  8  4
  8.012723311397e-04    9  2  8  5
 -1.759687841733e-04    9  2  8  6
  1.568329258903e-02    9  2  9  2
 -2.045153621152e-06    9  3  2  1
  1.451438712689e-02    9  3  3  1
  6.383200883794e-07    9  3  4  2
 -6.204825833342e-04    9  3  4  3
 -2.456727147069e-04    9  3  5  2
 -1.097091887073e-03    9  3  5  3
 -1.097092603471e-03    9  3  6  2
  2.456727947775e-04    9  3  6  3
  9.771974214645e-03    9  3  7  1
  5.813792953756e-04    9  3  7  4
 -8.012723311395e-04    9  3  7  5
  1.759687841732e-04    9  3  7  6
 -8.347493417166e-06    9  3  8  1
 -1.638827045666e-06    9  3  8  4
 -1.759691946763e-04    9  3  8  5
 -8.012630973822e-04    9  3  8  6
  1.568329258903e-02    9  3  9  3
 -5.542837305116e-02    9  4  1  1
 -4.137658439887e-02    9  4  2  2
 -4.137658439887e-02    9  4  3  3
 -1.215297517125e-02    9  4  4  1
 -1.558975536033e-02    9  4  4  4
 -7.781322310629e-02    9  4  5  5
 -1.663714523011e-09    9  4  6  5
 -7.781322540848e-02    9  4  6  6
  1.684658068669e-05    9  4  7  2
  9.833201673654e-03    9  4  7  3
 -6.710784504295e-02    9  4  7  7
  9.833201673654e-03    9  4  8  2
 -1.684658068674e-05    9  4  8  3
 -6.710784504295e-02    9  4  8  8
  1.716842795179e-02    9  4  9  1
  2.488131149804e-02    9  4  9  4
  1.929366234266e-03    9  5  2  2
 -4.305867960832e-04    9  5  3  2
 -1.929366234265e-03    9  5  3  3
 -1.340718637521e-02    9  5  5  1
 -6.837792497931e-03    9  5  5  4
 -3.782305446592e-09    9  5  6  1
  8.348963862936e-08    9  5  6  4
  6.304582678310e-04    9  5  7  2
  2.847585979698e-03    9  5  7  3
 -6.939389543946e-03    9  5  7  7
 -2.847585979694e-03    9  5  8  2
  6.304582678310e-04    9  5  8  3
 -1.526477442773e-03    9  5  8  7
  6.939389543942e-03    9  5  8  8
  2.082133560296e-02    9  5  9  5
 -4.305875823224e-04    9  6  2  2
 -1.929367713169e-03    9  6  3  2
  4.305875823229e-04    9  6  3  3
 -1.245872122256e-09    9  6  5  1
 -8.996874208593e-08    9  6  5  4
 -1.340720124463e-02    9  6  6  1
 -6.837816672298e-03    9  6  6  4
  2.847568010369e-03    9  6  7  2
 -6.304649675113e-04    9  6  7  3
  1.526509764430e-03    9  6  7  7
  6.304649675107e-04    9  6  8  2
  2.847568010369e-03    9  6  8  3
 -6.939271796308e-03    9  6  8  7
 -1.526509764428e-03    9  6  8  8
  7.570048274347e-09    9  6  9  5
  2.082138643321e-02    9  6  9  6
  1.927435311786e-05    9  7  2  1
  1.559941725318e-02    9  7  3  1
 -4.801775943254e-07    9  7  4  2
 -2.483796553590e-04    9  7  4  3
 -3.270822790696e-04    9  7  5  2
 -1.469202327804e-03    9  7  5  3
 -1.469194360621e-03    9  7  6  2
  3.270829813513e-04    9  7  6  3
  1.972902637286e-03    9  7  7  1
 -8.109832574656e-04    9  7  7  4
  4.376176592454e-03    9  7  7  5
 -9.627591333824e-04    9  7  7  6
  3.113378992668e-08    9  7  8  1
  1.903134229772e-07    9  7  8  4
  9.627597553065e-04    9  7  8  5
  4.376166762081e-03    9  7  8  6
  4.830366383852e-06    9  7  9  2
  5.012515981849e-03    9  7  9  3
  1.697225162486e-02    9  7  9  7
  1.559941725318e-02    9  8  2  1
 -1.927435311789e-05    9  8  3  1
 -2.483796553588e-04    9  8  4  2
  4.801775942606e-07    9  8  4  3
  1.469202327804e-03    9  8  5  2
 -3.270822790696e-04    9  8  5  3
 -3.270829813514e-04    9  8  6  2
 -1.469194360621e-03    9  8  6  3
 -3.113378994868e-08    9  8  7  1
 -1.903134228171e-07    9  8  7  4
  9.627597553065e-04    9  8  7  5
  4.376166762081e-03    9  8  7  6
  1.972902637286e-03    9  8  8  1
 -8.109832574658e-04    9  8  8  4
 -4.376176592454e-03    9  8  8  5
  9.627591333824e-04    9  8  8  6
  5.012515981849e-03    9  8  9  2
 -4.830366383850e-06    9  8  9  3
  1.697225162486e-02    9  8  9  8
  5.668821405808e-01    9  9  1  1
  4.890675685277e-01    9  9  2  2
  4.890675685277e-01    9  9  3  3
  3.471106036507e-02    9  9  4  1
  3.124111620799e-01    9  9  4  4
  5.587423312241e-01    9  9  5  5
  4.691399177809e-09    9  9  6  5
  5.587423227175e-01    9  9  6  6
 -1.220918196402e-05    9  9  7  2
  1.830378188677e-02    9  9  7  3
  5.582379246604e-01    9  9  7  7
  1.830378188677e-02    9  9  8  2
  1.220918196436e-05    9  9  8  3
  5.582379246604e-01    9  9  8  8
 -1.623381262500e-03    9  9  9  1
 -7.846412831042e-02    9  9  9  4
  6.324906248786e-01    9  9  9  9
 -4.472838546638e+00    1  1  0  0
 -4.288177497292e+00    2  2  0  0
 -4.288177497292e+00    3  3  0  0
 -1.507706552550e-01    4  1  0  0
 -2.372895781669e+00    4  4  0  0
 -3.689294175517e+00    5  5  0  0
 -3.480425862519e-09    6  5  0  0
 -3.689294028029e+00    6  6  0  0
 -1.868349315130e-04    7  2  0  0
 -4.054138480584e-01    7  3  0  0
 -3.794497036414e+00    7  7  0  0
 -4.054138480584e-01    8  2  0  0
  1.868349315123e-04    8  3  0  0
 -3.794497036414e+00    8  8  0  0
 -3.848767985558e-01    9  1  0  0
  3.874840341892e-01    9  4  0  0
 -3.844416278355e+00    9  9  0  0
    -66.523993226162   0  0  0  0
