#INFO: **** input file is /projects/bamu3429/BENCHMARK/fresh_atoms/MRPT/vtz/monoxides/VO/mrpt.py ****
import json
from pyscf import gto,scf,mcscf, fci, lo, ci, cc
from pyscf.scf import ROHF, UHF,ROKS
import numpy as np
import pandas as pd

# THIS IS WERE IT STARTS ====================================

df=json.load(open("../../../trail.json"))

spins={'ScO':1, 'TiO':2, 'VO':3, 'CrO':4, 'MnO':5, 'FeO':4, 'CuO':1}

nd={'Sc':(1,0), 'Ti':(2,0), 'V':(3,0), 'Cr':(5,0), 'Mn':(5,0), 'Fe':(5,1), 'Cu':(5,4)}

cas={'Sc':3, 'Ti':4, 'V':5, 'Cr':6, 'Mn':7, 'Fe':8, 'Cu':11}

re={'ScO':1.668, 'TiO':1.623, 'VO':1.591, 'CrO':1.621, 'MnO':1.648, 'FeO':1.616, 'CuO':1.725}

datacsv={}
for nm in ['basis','charge','method','molecule','pseudopotential',
           'totalenergy','totalenergy-stocherr','totalenergy-syserr']:
  datacsv[nm]=[]

basis='vtz'
element='V'

mol=gto.Mole()
mol.ecp={}
mol.basis={}
for el in [element,'O']:
  mol.ecp[el]=gto.basis.parse_ecp(df[el]['ecp'])
  mol.basis[el]=gto.basis.parse(df[el][basis])
mol.charge=0
mol.spin=spins[element+'O']
mol.build(atom="%s 0. 0. 0.; O 0. 0. %g"%(element,re[element+'O']),verbose=4)

m=ROHF(mol)
m.level_shift=1000.0
dm=m.from_chk("../../../../HF/monoxides/"+element+basis+"0.chk")
hf=m.kernel(dm)
m.analyze()

from pyscf.shciscf import shci
mc = shci.SHCISCF(m, 9, 4+cas[element])
#mc.fcisolver.conv_tol = 1e-14
mc.fcisolver.mpiprefix="srun -n20"
mc.fcisolver.num_thrds=12
mc.verbose = 4
cas=mc.kernel()[0]
 
from pyscf.icmpspt import icmpspt
pt=icmpspt.icmpspt(mc,rdmM=500, PTM=1000,\
                          pttype="MRLCC",\
                          third_order=True,\
                          fully_ic=True,\
                          do_dm4=True)

datacsv['basis'].append(basis)
datacsv['charge'].append(0)
datacsv['method'].append('MRPT')
datacsv['molecule'].append(element)
datacsv['pseudopotential'].append('trail')
datacsv['totalenergy'].append(cas+pt)
datacsv['totalenergy-stocherr'].append(0.0)
datacsv['totalenergy-syserr'].append(0.0)
pd.DataFrame(datacsv).to_csv(element+".csv",index=False)

#INFO: ******************** input file end ********************


System: ('Linux', 'bnode0302.rc.int.colorado.edu', '3.10.0-514.41.1.el7.x86_64', '#1 SMP Wed Jan 17 10:26:16 EST 2018', 'x86_64', 'x86_64')  Threads 28
Python 2.7.11 (default, Mar 22 2016, 01:42:54) 
[GCC Intel(R) C++ gcc 4.8 mode]
numpy 1.11.1  scipy 0.17.1
Date: Wed Apr 18 17:38:07 2018
PySCF version 1.4.6
PySCF path  /projects/bamu3429/softwares/pyscf_uptodate/pyscf
GIT ORIG_HEAD f3591ef22170896a4cdc2aadaa6f5da388ffcadb
GIT HEAD      ref: refs/heads/master
GIT master branch  1847583fb1d2472321833d3c71c8b7008e5fabf5

[INPUT] VERBOSE 4
[INPUT] num atoms = 2
[INPUT] num electrons = 19
[INPUT] charge = 0
[INPUT] spin (= nelec alpha-beta = 2S) = 3
[INPUT] symmetry False subgroup None
[INPUT]  1 V      0.000000000000   0.000000000000   0.000000000000 AA    0.000000000000   0.000000000000   0.000000000000 Bohr
[INPUT]  2 O      0.000000000000   0.000000000000   1.591000000000 AA    0.000000000000   0.000000000000   3.006554264183 Bohr
[INPUT] ---------------- BASIS SET ---------------- 
[INPUT] l, kappa, [nprim/nctr], expnt,             c_1 c_2 ...
[INPUT] O
[INPUT] 0    0    [10   /1   ]  57.663349         -0.002794
                                35.726816         0.023976
                                22.453757         -0.115974
                                14.732301         0.288033
                                9.739917          -0.274786
                                5.042008          -0.083789
                                2.157818          0.063778
                                1.002916          0.410182
                                0.421839          0.504044
                                0.173041          0.172152
[INPUT] 0    0    [1    /1   ]  1.849096             1
[INPUT] 0    0    [1    /1   ]  0.255434             1
[INPUT] 0    0    [1    /1   ]  0.141483             1
[INPUT] 1    0    [10   /1   ]  52.47406          -0.000522
                                32.138432         0.004857
                                19.458579         -0.027749
                                11.839344         0.074258
                                7.91003           0.014369
                                3.670858          0.153479
                                1.53966           0.283685
                                0.647119          0.358201
                                0.267853          0.29559
                                0.107198          0.104889
[INPUT] 1    0    [1    /1   ]  0.622175             1
[INPUT] 1    0    [1    /1   ]  0.193391             1
[INPUT] 1    0    [1    /1   ]  0.052779             1
[INPUT] 2    0    [1    /1   ]  2.324251             1
[INPUT] 2    0    [1    /1   ]  0.656935             1
[INPUT] 2    0    [1    /1   ]  0.2072               1
[INPUT] 3    0    [1    /1   ]  1.423472             1
[INPUT] 3    0    [1    /1   ]  0.48761              1
[INPUT] V
[INPUT] 0    0    [12   /1   ]  33.51168105       0.006845
                                15.38532624       -0.214557
                                9.96227367        1.392425
                                8.05943355        -1.485929
                                3.6960334         -0.026725
                                1.49220279        0.457681
                                0.84622253        0.506886
                                0.43855031        0.249453
                                0.2102388         0.007109
                                0.1022422         0.007055
                                0.04832462        -0.000443
                                0.02406855        0.001278
[INPUT] 0    0    [12   /1   ]  33.51168105       -0.001211
                                15.38532624       0.04697
                                9.96227367        -0.329808
                                8.05943355        0.363635
                                3.6960334         0.005985
                                1.49220279        -0.140857
                                0.84622253        -0.203846
                                0.43855031        -0.200776
                                0.2102388         0.022081
                                0.1022422         0.429765
                                0.04832462        0.534383
                                0.02406855        0.187984
[INPUT] 0    0    [12   /1   ]  33.51168105       -0.007111
                                15.38532624       0.233807
                                9.96227367        -1.69649
                                8.05943355        1.967562
                                3.6960334         -0.221986
                                1.49220279        -1.566848
                                0.84622253        0.314532
                                0.43855031        0.552762
                                0.2102388         0.87483
                                0.1022422         0.073061
                                0.04832462        -0.50294
                                0.02406855        -0.328304
[INPUT] 0    0    [12   /1   ]  33.51168105       -0.013861
                                15.38532624       0.372746
                                9.96227367        -2.690047
                                8.05943355        3.225629
                                3.6960334         -0.892796
                                1.49220279        -2.437526
                                0.84622253        2.347767
                                0.43855031        1.223514
                                0.2102388         -1.131537
                                0.1022422         -1.231287
                                0.04832462        0.586808
                                0.02406855        0.648032
[INPUT] 0    0    [1    /1   ]  0.02406855           1
[INPUT] 0    0    [1    /1   ]  0.01198757           1
[INPUT] 1    0    [12   /1   ]  49.83779697       0.000413
                                25.60370921       -0.003442
                                10.40982442       0.097153
                                7.71483683        -0.206888
                                4.49868206        0.083281
                                2.48212838        0.186621
                                1.4387019         0.395144
                                0.72090362        0.377883
                                0.3443302         0.134629
                                0.13162828        0.011074
                                0.05284968        -0.000426
                                0.02121951        0.000256
[INPUT] 1    0    [12   /1   ]  49.83779697       -2.9e-05
                                25.60370921       0.000502
                                10.40982442       -0.020934
                                7.71483683        0.047431
                                4.49868206        -0.020701
                                2.48212838        -0.057583
                                1.4387019         -0.106451
                                0.72090362        -0.140229
                                0.3443302         0.043257
                                0.13162828        0.438687
                                0.05284968        0.536785
                                0.02121951        0.12546
[INPUT] 1    0    [12   /1   ]  49.83779697       4.2e-05
                                25.60370921       -0.00212
                                10.40982442       0.123342
                                7.71483683        -0.318471
                                4.49868206        0.188642
                                2.48212838        0.726079
                                1.4387019         0.273545
                                0.72090362        -0.906715
                                0.3443302         -0.478781
                                0.13162828        0.723888
                                0.05284968        0.310191
                                0.02121951        -0.00813
[INPUT] 1    0    [12   /1   ]  49.83779697       0.000299
                                25.60370921       0.000309
                                10.40982442       -0.131422
                                7.71483683        0.419354
                                4.49868206        -0.585162
                                2.48212838        -0.699409
                                1.4387019         0.95299
                                0.72090362        0.532068
                                0.3443302         -0.999183
                                0.13162828        0.152364
                                0.05284968        0.334676
                                0.02121951        -0.023213
[INPUT] 1    0    [1    /1   ]  0.02121951           1
[INPUT] 1    0    [1    /1   ]  0.00851977           1
[INPUT] 2    0    [10   /1   ]  34.27504048       0.000678
                                16.12418185       -0.017858
                                9.59474528        0.107867
                                3.8690861         0.173949
                                1.82728072        0.26883
                                0.85799457        0.321303
                                0.38035078        0.300128
                                0.15533087        0.170792
                                0.06318167        0.035148
                                0.03734397        0.003549
[INPUT] 2    0    [10   /1   ]  34.27504048       0.000584
                                16.12418185       0.010634
                                9.59474528        -0.094271
                                3.8690861         -0.228668
                                1.82728072        -0.397823
                                0.85799457        -0.076182
                                0.38035078        0.313255
                                0.15533087        0.472762
                                0.06318167        0.196314
                                0.03734397        0.015996
[INPUT] 2    0    [10   /1   ]  34.27504048       0.003588
                                16.12418185       -0.007285
                                9.59474528        -0.060176
                                3.8690861         -0.418946
                                1.82728072        -0.38644
                                0.85799457        0.691971
                                0.38035078        0.444732
                                0.15533087        -0.454572
                                0.06318167        -0.39879
                                0.03734397        -0.019185
[INPUT] 2    0    [1    /1   ]  0.03734397           1
[INPUT] 2    0    [1    /1   ]  0.02207241           1
[INPUT] 3    0    [1    /1   ]  2.578583             1
[INPUT] 3    0    [1    /1   ]  0.725076             1
[INPUT] 3    0    [1    /1   ]  0.2038853            1
[INPUT] 4    0    [1    /1   ]  2.326339             1
[INPUT] 4    0    [1    /1   ]  0.65414707           1
nuclear repulsion = 25.9433202085229
number of shells = 35
number of NR pGTOs = 480
number of NR cGTOs = 133
basis = {'O': [[0, [57.663349, -0.002794], [35.726816, 0.023976], [22.453757, -0.115974], [14.732301, 0.288033], [9.739917, -0.274786], [5.042008, -0.083789], [2.157818, 0.063778], [1.002916, 0.410182], [0.421839, 0.504044], [0.173041, 0.172152]], [0, [1.849096, 1.0]], [0, [0.255434, 1.0]], [0, [0.141483, 1.0]], [1, [52.47406, -0.000522], [32.138432, 0.004857], [19.458579, -0.027749], [11.839344, 0.074258], [7.91003, 0.014369], [3.670858, 0.153479], [1.53966, 0.283685], [0.647119, 0.358201], [0.267853, 0.29559], [0.107198, 0.104889]], [1, [0.622175, 1.0]], [1, [0.193391, 1.0]], [1, [0.052779, 1.0]], [2, [2.324251, 1.0]], [2, [0.656935, 1.0]], [2, [0.2072, 1.0]], [3, [1.423472, 1.0]], [3, [0.48761, 1.0]]], 'V': [[0, [33.51168105, 0.006845], [15.38532624, -0.214557], [9.96227367, 1.392425], [8.05943355, -1.485929], [3.6960334, -0.026725], [1.49220279, 0.457681], [0.84622253, 0.506886], [0.43855031, 0.249453], [0.2102388, 0.007109], [0.1022422, 0.007055], [0.04832462, -0.000443], [0.02406855, 0.001278]], [0, [33.51168105, -0.001211], [15.38532624, 0.04697], [9.96227367, -0.329808], [8.05943355, 0.363635], [3.6960334, 0.005985], [1.49220279, -0.140857], [0.84622253, -0.203846], [0.43855031, -0.200776], [0.2102388, 0.022081], [0.1022422, 0.429765], [0.04832462, 0.534383], [0.02406855, 0.187984]], [0, [33.51168105, -0.007111], [15.38532624, 0.233807], [9.96227367, -1.69649], [8.05943355, 1.967562], [3.6960334, -0.221986], [1.49220279, -1.566848], [0.84622253, 0.314532], [0.43855031, 0.552762], [0.2102388, 0.87483], [0.1022422, 0.073061], [0.04832462, -0.50294], [0.02406855, -0.328304]], [0, [33.51168105, -0.013861], [15.38532624, 0.372746], [9.96227367, -2.690047], [8.05943355, 3.225629], [3.6960334, -0.892796], [1.49220279, -2.437526], [0.84622253, 2.347767], [0.43855031, 1.223514], [0.2102388, -1.131537], [0.1022422, -1.231287], [0.04832462, 0.586808], [0.02406855, 0.648032]], [0, [0.02406855, 1.0]], [0, [0.01198757, 1.0]], [1, [49.83779697, 0.000413], [25.60370921, -0.003442], [10.40982442, 0.097153], [7.71483683, -0.206888], [4.49868206, 0.083281], [2.48212838, 0.186621], [1.4387019, 0.395144], [0.72090362, 0.377883], [0.3443302, 0.134629], [0.13162828, 0.011074], [0.05284968, -0.000426], [0.02121951, 0.000256]], [1, [49.83779697, -2.9e-05], [25.60370921, 0.000502], [10.40982442, -0.020934], [7.71483683, 0.047431], [4.49868206, -0.020701], [2.48212838, -0.057583], [1.4387019, -0.106451], [0.72090362, -0.140229], [0.3443302, 0.043257], [0.13162828, 0.438687], [0.05284968, 0.536785], [0.02121951, 0.12546]], [1, [49.83779697, 4.2e-05], [25.60370921, -0.00212], [10.40982442, 0.123342], [7.71483683, -0.318471], [4.49868206, 0.188642], [2.48212838, 0.726079], [1.4387019, 0.273545], [0.72090362, -0.906715], [0.3443302, -0.478781], [0.13162828, 0.723888], [0.05284968, 0.310191], [0.02121951, -0.00813]], [1, [49.83779697, 0.000299], [25.60370921, 0.000309], [10.40982442, -0.131422], [7.71483683, 0.419354], [4.49868206, -0.585162], [2.48212838, -0.699409], [1.4387019, 0.95299], [0.72090362, 0.532068], [0.3443302, -0.999183], [0.13162828, 0.152364], [0.05284968, 0.334676], [0.02121951, -0.023213]], [1, [0.02121951, 1.0]], [1, [0.00851977, 1.0]], [2, [34.27504048, 0.000678], [16.12418185, -0.017858], [9.59474528, 0.107867], [3.8690861, 0.173949], [1.82728072, 0.26883], [0.85799457, 0.321303], [0.38035078, 0.300128], [0.15533087, 0.170792], [0.06318167, 0.035148], [0.03734397, 0.003549]], [2, [34.27504048, 0.000584], [16.12418185, 0.010634], [9.59474528, -0.094271], [3.8690861, -0.228668], [1.82728072, -0.397823], [0.85799457, -0.076182], [0.38035078, 0.313255], [0.15533087, 0.472762], [0.06318167, 0.196314], [0.03734397, 0.015996]], [2, [34.27504048, 0.003588], [16.12418185, -0.007285], [9.59474528, -0.060176], [3.8690861, -0.418946], [1.82728072, -0.38644], [0.85799457, 0.691971], [0.38035078, 0.444732], [0.15533087, -0.454572], [0.06318167, -0.39879], [0.03734397, -0.019185]], [2, [0.03734397, 1.0]], [2, [0.02207241, 1.0]], [3, [2.578583, 1.0]], [3, [0.725076, 1.0]], [3, [0.2038853, 1.0]], [4, [2.326339, 1.0]], [4, [0.65414707, 1.0]]]}
ecp = {'O': [2, [[-1, [[], [[10.27717748, 6.0]], [[15.99566749, 1232.50197768], [10.46901775, -696.47008301], [14.6384801, -2654.22657081], [12.57591181, 2101.67732548]], [[7.77739102, 61.66306486]]]], [0, [[], [], [[12.39426073, -656683.37638839], [12.38126171, 657858.57667068], [8.57671033, 511.50098405], [9.89256508, -2579.54665641], [28.05641604, -57.68129584], [17.24753607, 970.30940152]], []]], [1, [[], [], [[14.78918914, -363027.24258186], [14.82014018, 361852.52314043], [22.89622221, -1300.20069256], [8.51331893, -181.96869573], [11.48609758, 2194.87589959], [27.22017524, 451.19906206]], []]]]], 'V': [10, [[-1, [[], [[8.85341849, 13.0]], [[14.12393489, 1867.96836466], [10.01469125, -417.2185296], [16.87739786, -6735.41034163], [17.42661229, 5248.9519915]], [[8.14766139, 115.09444037]]]], [0, [[], [], [[10.17161428, 8429.89768085], [6.62108601, -4738.0869454], [6.4407206, 3874.69004628], [11.26222343, -9817.80452096], [19.82459033, -286.16022228], [14.35299938, 2571.80634504]], []]], [1, [[], [], [[10.25117807, 40641.17869487], [10.49106006, -41559.00487832], [13.7869188, 3357.33248976], [16.29479305, -896.47755921], [7.79003518, -1904.45864373], [6.62830213, 382.3757783]], []]], [2, [[], [], [[8.601477, 4615.05527413], [10.66674565, -3671.60281242], [15.19026557, 4480.50015686], [8.06189603, -2591.12632756], [19.82232597, 2587.18683714], [18.22318105, -5431.92186158]], []]]]]}
CPU time:         3.77


******** <class 'pyscf.scf.rohf.ROHF'> flags ********
method = ROHF
initial guess = minao
damping factor = 0
level shift factor = 1000.0
DIIS = <class 'pyscf.scf.diis.CDIIS'>
DIIS start cycle = 1
DIIS space = 8
SCF tol = 1e-09
SCF gradient tol = None
max. SCF cycles = 50
direct_scf = True
direct_scf_tol = 1e-13
chkfile to save SCF result = /rc_scratch/bamu3429/tmpeMw3cD
max_memory 4000 MB (current use 107 MB)
num. doubly occ = 8  num. singly occ = 3
Set gradient conv threshold to 3.16228e-05
init E= -86.4067001883697
  HOMO = 499.887962212408  LUMO = 1000.01330083978
cycle= 1 E= -86.40670018837  delta_E= -3.27e-13  |g|= 1.51e-05  |ddm|= 5.27e-08
  HOMO = -0.112037781984906  LUMO = 0.0133008397658426
Extra cycle  E= -86.4067001885886  delta_E= -2.19e-10  |g|= 6.3e-06  |ddm|= 3.87e-05
converged SCF energy = -86.4067001885886
**** MO energy ****
                Roothaan           | alpha              | beta
MO #1   energy= -3.26532501792607  | -3.34567937572659  | -3.18497059609556  occ= 2
MO #2   energy= -2.10076900461715  | -2.12888206891866  | -2.07265593633335  occ= 2
MO #3   energy= -2.06699088625823  | -2.19720571505948  | -1.93677605745698  occ= 2
MO #4   energy= -2.06699088625823  | -2.19720571505948  | -1.93677605745697  occ= 2
MO #5   energy= -1.17514163540399  | -1.17853788713048  | -1.171745387043    occ= 2
MO #6   energy= -0.477759727136026 | -0.488807260201003 | -0.466712236472416 occ= 2
MO #7   energy= -0.454065560812024 | -0.458957354930407 | -0.449173766693642 occ= 2
MO #8   energy= -0.454065560812022 | -0.458957354930406 | -0.449173766693641 occ= 2
MO #9   energy= -0.126246436551738 | -0.285224804459287 | 0.0327304175223886 occ= 1
MO #10  energy= -0.112037781984959 | -0.490611972101239 | 0.266537302423691  occ= 1
MO #11  energy= -0.112037781984906 | -0.490611972101184 | 0.266537302423733  occ= 1
MO #12  energy= 0.0133008397658426 | 0.00930133961326022 | 0.0173003399184252 occ= 0
MO #13  energy= 0.0133008397658429 | 0.00930133961326019 | 0.0173003399184253 occ= 0
MO #14  energy= 0.0137033233939961 | 0.0113482696205878 | 0.0160586624831108 occ= 0
MO #15  energy= 0.0285295657590602 | 0.0277279663983691 | 0.0293311543256033 occ= 0
MO #16  energy= 0.0418231664617767 | 0.0287016233495527 | 0.0549447095740032 occ= 0
MO #17  energy= 0.0418231664617776 | 0.0287016233495536 | 0.0549447095740023 occ= 0
MO #18  energy= 0.0482524784233802 | 0.0367411304244467 | 0.0597642606312731 occ= 0
MO #19  energy= 0.0611948539929581 | 0.0606941386150504 | 0.0616955601733917 occ= 0
MO #20  energy= 0.0611948539929606 | 0.0606941386150508 | 0.0616955601733926 occ= 0
MO #21  energy= 0.0684213321478371 | 0.0669500395948829 | 0.0698926247007886 occ= 0
MO #22  energy= 0.0684213321478378 | 0.0669500395948853 | 0.0698926247007896 occ= 0
MO #23  energy= 0.0772252798114482 | 0.0709665897544442 | 0.0834842906085953 occ= 0
MO #24  energy= 0.120830986571742  | 0.107954350795166  | 0.133707547103034  occ= 0
MO #25  energy= 0.12130774253809   | 0.105993160547919  | 0.136622324528264  occ= 0
MO #26  energy= 0.121307742538095  | 0.105993160547924  | 0.136622324528269  occ= 0
MO #27  energy= 0.138367640187751  | 0.129698122597482  | 0.147037488950235  occ= 0
MO #28  energy= 0.177185483347403  | 0.170127557099235  | 0.184243161159153  occ= 0
MO #29  energy= 0.177185483347413  | 0.17012755709924   | 0.184243161159161  occ= 0
MO #30  energy= 0.197451484372197  | 0.185470729943315  | 0.209432238801078  occ= 0
MO #31  energy= 0.197451484372202  | 0.18547072994332   | 0.209432238801083  occ= 0
MO #32  energy= 0.204822955475359  | 0.198408472229093  | 0.211237422853477  occ= 0
MO #33  energy= 0.237604513949759  | 0.217629937913875  | 0.257579089985642  occ= 0
MO #34  energy= 0.237604513949759  | 0.217629937913876  | 0.257579089985644  occ= 0
MO #35  energy= 0.276801964927441  | 0.269743240532243  | 0.28386068932264   occ= 0
MO #36  energy= 0.276801964927453  | 0.269743240532262  | 0.283860689322647  occ= 0
MO #37  energy= 0.28719419203473   | 0.28109871092414   | 0.293289833797957  occ= 0
MO #38  energy= 0.414859106318041  | 0.403165991675175  | 0.426552258489076  occ= 0
MO #39  energy= 0.649740383504494  | 0.633460725243761  | 0.666020031116684  occ= 0
MO #40  energy= 0.665569075960908  | 0.65310884329805   | 0.678029262927791  occ= 0
MO #41  energy= 0.665569075960915  | 0.65310884329808   | 0.678029262927778  occ= 0
MO #42  energy= 0.700244475839996  | 0.66104291219354   | 0.739445572288784  occ= 0
MO #43  energy= 0.700244475840065  | 0.661042912193595  | 0.739445572288868  occ= 0
MO #44  energy= 0.703541904587779  | 0.685608957617926  | 0.721474851557634  occ= 0
MO #45  energy= 0.703541904587783  | 0.685608957617928  | 0.721474851557639  occ= 0
MO #46  energy= 0.732623196878465  | 0.711938096718265  | 0.753308309740872  occ= 0
MO #47  energy= 0.734524218077794  | 0.712374449481547  | 0.756673986674048  occ= 0
MO #48  energy= 0.734524218077797  | 0.712374449481547  | 0.756673986674048  occ= 0
MO #49  energy= 0.771905828710062  | 0.759504946511703  | 0.784306728700184  occ= 0
MO #50  energy= 0.85233751774979   | 0.848356333923246  | 0.856318701576332  occ= 0
MO #51  energy= 0.852337517749808  | 0.848356333923265  | 0.856318701576359  occ= 0
MO #52  energy= 0.917693941301946  | 0.912786611911854  | 0.922601272075716  occ= 0
MO #53  energy= 0.95571856153861   | 0.945030508207525  | 0.966406600535962  occ= 0
MO #54  energy= 0.955718561538674  | 0.945030508207584  | 0.966406600536032  occ= 0
MO #55  energy= 0.974737354387288  | 0.970848338067886  | 0.978626370706691  occ= 0
MO #56  energy= 0.974737354387289  | 0.970848338067884  | 0.978626370706692  occ= 0
MO #57  energy= 1.01066789683544   | 0.991993280813247  | 1.02934251285764   occ= 0
MO #58  energy= 1.01066789683548   | 0.991993280813272  | 1.02934251285769   occ= 0
MO #59  energy= 1.30487824775282   | 1.29829572286743   | 1.31146077254619   occ= 0
MO #60  energy= 1.6598080947054    | 1.65251503901005   | 1.66710114982316   occ= 0
MO #61  energy= 1.76432430496148   | 1.7453227265939    | 1.78332588332907   occ= 0
MO #62  energy= 1.76432430496149   | 1.7453227265939    | 1.78332588332908   occ= 0
MO #63  energy= 2.06698590686413   | 2.06004569082831   | 2.07392612820763   occ= 0
MO #64  energy= 2.06698590686413   | 2.06004569082832   | 2.07392612820763   occ= 0
MO #65  energy= 2.07694537569036   | 2.07526278634398   | 2.07862796503675   occ= 0
MO #66  energy= 2.07694537569036   | 2.07526278634398   | 2.07862796503675   occ= 0
MO #67  energy= 2.14980029004477   | 2.13829611746254   | 2.16130446262701   occ= 0
MO #68  energy= 2.14980029004477   | 2.13829611746254   | 2.16130446262701   occ= 0
MO #69  energy= 2.21180808638426   | 2.20793999312949   | 2.21567618110024   occ= 0
MO #70  energy= 2.35911134208989   | 2.35694713670936   | 2.36127554789288   occ= 0
MO #71  energy= 2.3591113420899    | 2.35694713670937   | 2.36127554789289   occ= 0
MO #72  energy= 2.37955217062273   | 2.36690346446746   | 2.39220087706419   occ= 0
MO #73  energy= 2.45055431318441   | 2.43791110315221   | 2.46319752321661   occ= 0
MO #74  energy= 2.45055431318442   | 2.43791110315221   | 2.46319752321662   occ= 0
MO #75  energy= 2.46679608269468   | 2.39558835424947   | 2.53800381113989   occ= 0
MO #76  energy= 2.46679608269468   | 2.39558835424947   | 2.53800381113989   occ= 0
MO #77  energy= 2.58679222666749   | 2.55906320296903   | 2.61452122502153   occ= 0
MO #78  energy= 2.58679222666749   | 2.55906320296903   | 2.61452122502154   occ= 0
MO #79  energy= 2.60960551802357   | 2.59818549470409   | 2.62102554210747   occ= 0
MO #80  energy= 2.68727283666055   | 2.6771837201183    | 2.69736195531343   occ= 0
MO #81  energy= 2.70181152144304   | 2.68701310106971   | 2.71660994181637   occ= 0
MO #82  energy= 2.70181152144304   | 2.68701310106971   | 2.71660994181637   occ= 0
MO #83  energy= 2.97112467085281   | 2.94015577725857   | 3.00209356444704   occ= 0
MO #84  energy= 2.97112467085282   | 2.94015577725859   | 3.00209356444706   occ= 0
MO #85  energy= 3.01390139372676   | 2.9476832047662    | 3.08011948273044   occ= 0
MO #86  energy= 3.01390139372681   | 2.94768320476625   | 3.08011948273049   occ= 0
MO #87  energy= 3.05225058857296   | 3.03437899973882   | 3.0701221774071    occ= 0
MO #88  energy= 3.05225058857296   | 3.03437899973883   | 3.07012217740711   occ= 0
MO #89  energy= 3.33104234596362   | 3.31947835677637   | 3.34260633515088   occ= 0
MO #90  energy= 3.33104234596362   | 3.31947835677637   | 3.34260633515088   occ= 0
MO #91  energy= 3.37251619538854   | 3.36230299693364   | 3.38272939385545   occ= 0
MO #92  energy= 3.4481264056678    | 3.43692708451639   | 3.4593257315564    occ= 0
MO #93  energy= 3.44812640566781   | 3.4369270845164    | 3.45932573155641   occ= 0
MO #94  energy= 3.5249815371145    | 3.51810550190814   | 3.53185757232085   occ= 0
MO #95  energy= 3.52498153711452   | 3.51810550190818   | 3.53185757232088   occ= 0
MO #96  energy= 3.62842911694229   | 3.62053671972802   | 3.63632151263361   occ= 0
MO #97  energy= 3.72197902797981   | 3.69432400661813   | 3.74963405068968   occ= 0
MO #98  energy= 4.25693331128784   | 4.2510924092265    | 4.26277421334919   occ= 0
MO #99  energy= 4.25693331128787   | 4.25109240922652   | 4.26277421334921   occ= 0
MO #100 energy= 5.40846092179065   | 5.40482301015665   | 5.41209883347579   occ= 0
MO #101 energy= 6.14649327793009   | 6.13877934533669   | 6.15420721050943   occ= 0
MO #102 energy= 6.50437193806582   | 6.50424245080666   | 6.504501425325     occ= 0
MO #103 energy= 6.50437193806582   | 6.50424245080665   | 6.50450142532498   occ= 0
MO #104 energy= 6.59753208677773   | 6.5972818229588    | 6.5977823506007    occ= 0
MO #105 energy= 6.59753208677774   | 6.5972818229588    | 6.59778235060071   occ= 0
MO #106 energy= 6.61230829783746   | 6.59797382571366   | 6.62664276996127   occ= 0
MO #107 energy= 6.61230829783747   | 6.59797382571366   | 6.62664276996127   occ= 0
MO #108 energy= 6.95056310981289   | 6.93264006931539   | 6.96848615031038   occ= 0
MO #109 energy= 6.95056310981289   | 6.93264006931539   | 6.96848615031039   occ= 0
MO #110 energy= 7.09173699540394   | 7.09101334683205   | 7.09246064404661   occ= 0
MO #111 energy= 7.09173699540394   | 7.09101334683205   | 7.09246064404661   occ= 0
MO #112 energy= 7.21430492734097   | 7.19887798748546   | 7.22973186705523   occ= 0
MO #113 energy= 7.3064777104688    | 7.30007096319524   | 7.31288445774237   occ= 0
MO #114 energy= 7.3064777104688    | 7.30007096319523   | 7.31288445774236   occ= 0
MO #115 energy= 7.67198899979796   | 7.66946975145271   | 7.6745082479898    occ= 0
MO #116 energy= 7.8044951241027    | 7.72180039444101   | 7.88718985376438   occ= 0
MO #117 energy= 7.8044951241027    | 7.72180039444102   | 7.88718985376439   occ= 0
MO #118 energy= 7.84635137871388   | 7.8087666967412    | 7.88393606033439   occ= 0
MO #119 energy= 7.84635137871388   | 7.80876669674121   | 7.8839360603344    occ= 0
MO #120 energy= 8.25506418751233   | 8.23333231474717   | 8.27679606027752   occ= 0
MO #121 energy= 8.25506418751234   | 8.23333231474716   | 8.27679606027751   occ= 0
MO #122 energy= 8.68749179756232   | 8.67233401206862   | 8.7026495832213    occ= 0
MO #123 energy= 9.0627083650042    | 9.0517248301439    | 9.07369189987668   occ= 0
MO #124 energy= 10.3124921682555   | 10.2803454067483   | 10.3446389297626   occ= 0
MO #125 energy= 10.3124921682555   | 10.2803454067483   | 10.3446389297626   occ= 0
MO #126 energy= 10.3203570194035   | 10.2658021191233   | 10.3749119196836   occ= 0
MO #127 energy= 10.3203570194035   | 10.2658021191234   | 10.3749119196837   occ= 0
MO #128 energy= 10.4077967463103   | 10.385656826933    | 10.4299366713678   occ= 0
MO #129 energy= 10.4077967463103   | 10.385656826933    | 10.4299366713678   occ= 0
MO #130 energy= 10.4839214571454   | 10.4651414310763   | 10.5027014832145   occ= 0
MO #131 energy= 10.4839214571454   | 10.4651414310763   | 10.5027014832145   occ= 0
MO #132 energy= 10.5621356167866   | 10.5448675946682   | 10.5794036378463   occ= 0
MO #133 energy= 13.5887043906285   | 13.5881107472306   | 13.5892980340228   occ= 0
 ** Mulliken pop on meta-lowdin orthogonal AOs  **
 ** Mulliken pop  **
pop of  0V 3s        1.99960
pop of  0V 4s        0.87653
pop of  0V 5s        0.00612
pop of  0V 6s        0.00297
pop of  0V 7s        0.00247
pop of  0V 8s        0.00150
pop of  0V 3px       1.99947
pop of  0V 3py       1.99947
pop of  0V 3pz       1.99661
pop of  0V 4px       0.00729
pop of  0V 4py       0.00729
pop of  0V 4pz       0.05215
pop of  0V 5px       0.00023
pop of  0V 5py       0.00023
pop of  0V 5pz       0.00602
pop of  0V 6px       0.00002
pop of  0V 6py       0.00002
pop of  0V 6pz       0.00126
pop of  0V 7px       0.00023
pop of  0V 7py       0.00023
pop of  0V 7pz       0.00919
pop of  0V 8px       0.00003
pop of  0V 8py       0.00003
pop of  0V 8pz       0.00074
pop of  0V 3dxy      0.99711
pop of  0V 3dyz      0.28838
pop of  0V 3dz^2     0.60436
pop of  0V 3dxz      0.28838
pop of  0V 3dx2-y2    0.99711
pop of  0V 4dxy      0.00193
pop of  0V 4dyz      0.00112
pop of  0V 4dz^2     0.00400
pop of  0V 4dxz      0.00112
pop of  0V 4dx2-y2    0.00193
pop of  0V 5dxy      0.00007
pop of  0V 5dyz      0.00008
pop of  0V 5dz^2     0.00182
pop of  0V 5dxz      0.00008
pop of  0V 5dx2-y2    0.00007
pop of  0V 6dxy      0.00043
pop of  0V 6dyz      0.00003
pop of  0V 6dz^2     0.00071
pop of  0V 6dxz      0.00003
pop of  0V 6dx2-y2    0.00043
pop of  0V 7dxy      0.00004
pop of  0V 7dyz      0.00000
pop of  0V 7dz^2     0.00015
pop of  0V 7dxz      0.00000
pop of  0V 7dx2-y2    0.00004
pop of  0V 4fy^3     0.00000
pop of  0V 4fxyz     0.00000
pop of  0V 4fyz^2    0.00009
pop of  0V 4fz^3     0.00022
pop of  0V 4fxz^2    0.00009
pop of  0V 4fzx^2    0.00000
pop of  0V 4fx^3     0.00000
pop of  0V 5fy^3     0.00000
pop of  0V 5fxyz     0.00006
pop of  0V 5fyz^2    0.00099
pop of  0V 5fz^3     0.00162
pop of  0V 5fxz^2    0.00099
pop of  0V 5fzx^2    0.00006
pop of  0V 5fx^3     0.00000
pop of  0V 6fy^3     0.00000
pop of  0V 6fxyz     0.00012
pop of  0V 6fyz^2    0.00042
pop of  0V 6fz^3     0.00364
pop of  0V 6fxz^2    0.00042
pop of  0V 6fzx^2    0.00012
pop of  0V 6fx^3     0.00000
pop of  0V 5g-4      0.00000
pop of  0V 5g-3      0.00000
pop of  0V 5g-2      0.00000
pop of  0V 5g-1      0.00002
pop of  0V 5g 0      0.00003
pop of  0V 5g 1      0.00002
pop of  0V 5g 2      0.00000
pop of  0V 5g 3      0.00000
pop of  0V 5g 4      0.00000
pop of  0V 6g-4      0.00000
pop of  0V 6g-3      0.00000
pop of  0V 6g-2      0.00000
pop of  0V 6g-1      0.00010
pop of  0V 6g 0      0.00059
pop of  0V 6g 1      0.00010
pop of  0V 6g 2      0.00000
pop of  0V 6g 3      0.00000
pop of  0V 6g 4      0.00000
pop of  1O 2s        1.86569
pop of  1O 3s        0.00152
pop of  1O 4s        0.00302
pop of  1O 5s        0.01111
pop of  1O 2px       1.68784
pop of  1O 2py       1.68784
pop of  1O 2pz       1.53399
pop of  1O 3px       0.00002
pop of  1O 3py       0.00002
pop of  1O 3pz       0.00044
pop of  1O 4px       0.00405
pop of  1O 4py       0.00405
pop of  1O 4pz       0.00068
pop of  1O 5px       0.00207
pop of  1O 5py       0.00207
pop of  1O 5pz       0.00454
pop of  1O 3dxy      0.00000
pop of  1O 3dyz      0.00039
pop of  1O 3dz^2     0.00056
pop of  1O 3dxz      0.00039
pop of  1O 3dx2-y2    0.00000
pop of  1O 4dxy      0.00000
pop of  1O 4dyz      0.00297
pop of  1O 4dz^2     0.00283
pop of  1O 4dxz      0.00297
pop of  1O 4dx2-y2    0.00000
pop of  1O 5dxy      0.00018
pop of  1O 5dyz      0.00390
pop of  1O 5dz^2     0.00297
pop of  1O 5dxz      0.00390
pop of  1O 5dx2-y2    0.00018
pop of  1O 4fy^3     0.00000
pop of  1O 4fxyz     0.00000
pop of  1O 4fyz^2    0.00009
pop of  1O 4fz^3     0.00013
pop of  1O 4fxz^2    0.00009
pop of  1O 4fzx^2    0.00000
pop of  1O 4fx^3     0.00000
pop of  1O 5fy^3     0.00000
pop of  1O 5fxyz     0.00004
pop of  1O 5fyz^2    0.00018
pop of  1O 5fz^3     0.00022
pop of  1O 5fxz^2    0.00018
pop of  1O 5fzx^2    0.00004
pop of  1O 5fx^3     0.00000
 ** Mulliken atomic charges  **
charge of  0V =      0.83116
charge of  1O =     -0.83116

******** <class 'pyscf.mcscf.mc1step.CASSCF'> flags ********
CAS (6e+3e, 9o), ncore = 5, nvir = 119
max_cycle_macro = 50
max_cycle_micro = 4
conv_tol = 1e-07
conv_tol_grad = None
orbital rotation max_stepsize = 0.02
augmented hessian ah_max_cycle = 30
augmented hessian ah_conv_tol = 1e-12
augmented hessian ah_linear dependence = 1e-14
augmented hessian ah_level shift = 0
augmented hessian ah_start_tol = 2.5
augmented hessian ah_start_cycle = 3
augmented hessian ah_grad_trust_region = 3
kf_trust_region = 3
kf_interval = 4
ci_response_space = 4
ci_grad_trust_region = 3
with_dep4 0
natorb = False
canonicalization = True
sorting_mo_energy = False
chkfile = ./scratch/105614/tmpaeh0xO
max_memory 4000 MB (current use 506 MB)
internal_rotation = False

******** SHCI flags ********
executable             = /home/bamu3429/softwares/dice/Dice
mpiprefix              = srun -n20
scratchDirectory       = ./scratch/105614
integralFile           = ./FCIDUMP
configFile             = ./input.dat
outputFile             = ./output.dat
maxIter                = 6
sweep_iter             = []
sweep_epsilon          = []
nPTiter                = 0
Stochastic             = True
fullrestart            = False
restart                = False
num_thrds              = 12
memory                 = None

CASCI E = -86.4067686598595  S^2 = 3.7500000
Set conv_tol_grad to 0.000316228
macro iter 1 (7 JK  2 micro), CASSCF E = -86.4071411838223  dE = -0.00037252396  S^2 = 3.7500000
               |grad[o]|=0.000649  |grad[c]|= None  |ddm|=0.0125
macro iter 2 (21 JK  4 micro), CASSCF E = -86.4252272427219  dE = -0.018086059  S^2 = 3.7500000
               |grad[o]|=0.00255  |grad[c]|= None  |ddm|=0.0355
macro iter 3 (21 JK  4 micro), CASSCF E = -86.452178321001  dE = -0.026951078  S^2 = 3.7500000
               |grad[o]|=0.0632  |grad[c]|= None  |ddm|=0.0835
macro iter 4 (21 JK  4 micro), CASSCF E = -86.4931414158024  dE = -0.040963095  S^2 = 3.7500000
               |grad[o]|=0.0755  |grad[c]|= None  |ddm|=0.041
macro iter 5 (21 JK  4 micro), CASSCF E = -86.5397077404755  dE = -0.046566325  S^2 = 3.7500000
               |grad[o]|=0.0834  |grad[c]|= None  |ddm|=0.0448
macro iter 6 (21 JK  4 micro), CASSCF E = -86.5613149560702  dE = -0.021607216  S^2 = 3.7500000
               |grad[o]|=0.0684  |grad[c]|= None  |ddm|=0.0496
macro iter 7 (12 JK  4 micro), CASSCF E = -86.5615462010635  dE = -0.00023124499  S^2 = 3.7500000
               |grad[o]|=0.0135  |grad[c]|= None  |ddm|=0.0208
macro iter 8 (10 JK  4 micro), CASSCF E = -86.5615487848637  dE = -2.5838003e-06  S^2 = 3.7500000
               |grad[o]|=0.00105  |grad[c]|= None  |ddm|=0.00314
macro iter 9 (3 JK  1 micro), CASSCF E = -86.5615488188751  dE = -3.4011379e-08  S^2 = 3.7500000
               |grad[o]|=0.000155  |grad[c]|= None  |ddm|=0.000245
1-step CASSCF converged in 9 macro (137 JK 31 micro) steps
CASSCF canonicalization
CASSCF energy = -86.5615488188751


--------------------------------------------------
                 ICMPSPT CALCULATION              
--------------------------------------------------

Perturbation type: MRLCC
With fully internally contracted scheme
With third order correction

Preparing necessary RDMs
......production of RDMs took      49.21 sec
Reading binary 4RDM from DICE
......reading the RDM took         27.80 sec

(GOOD) Trace 4RDM:   3024.0 =    9*    8*    7*    6
(GOOD) Trace 3RDM:    504.0 =    9*    8*    7
(GOOD) Trace 2RDM:     72.0 =    9*    8
(GOOD) Trace 1RDM:      9.0 =    9

Producing the integrals
......production of INT took     138.02 sec

Energy_core =  -92.46731343
Energy      =  -86.56154882

WARNING: Have to use natural orbitals from CAASCF
         offdiagonal elements:    0.56520695

Basic ingredients written to int/
......savings of INGREDIENTS took     133.92 sec

Second-order:
perturber CCVV --        -0.124867863
perturber CCAV --        -0.069983508
perturber ACVV --        -0.153541604
perturber CCAA --        -0.038797704
perturber AAVV --        -0.135011547
perturber CAAV --        -0.137540157
perturber AAAV --        -0.033230493
perturber AAAC --        -0.004794859
Total:                   -0.697767735

Third-order:              0.000214598

Total PT       --        -0.697553138

