 &FCI NORB=6 ,NELEC=7 ,MS2=5,
  ORBSYM=1,1,1,1,1,1,
  ISYM=1,
 &END
  8.999616157107e-01    1  1  1  1
  4.013429588484e-02    2  1  2  1
  8.320461081112e-01    2  2  1  1
  9.308667586048e-01    2  2  2  2
 -2.734314332693e-09    3  1  1  1
  4.571899408655e-08    3  1  2  2
  4.013429751935e-02    3  1  3  1
 -2.247392958898e-08    3  2  2  1
  2.004700919222e-02    3  2  3  2
  8.320461364117e-01    3  3  1  1
  1.004658669932e-12    3  3  2  1
  8.907727733472e-01    3  3  2  2
  7.711352016588e-10    3  3  3  1
  9.308668248584e-01    3  3  3  3
  2.513626614042e-02    4  1  4  1
  2.101920115327e-07    4  2  4  1
  3.617740618098e-02    4  2  4  2
  9.565640236829e-03    4  3  4  1
  3.617738836045e-02    4  3  4  3
  8.621555877265e-01    4  4  1  1
 -4.004186298470e-07    4  4  2  1
  8.553762041888e-01    4  4  2  2
 -1.822267423780e-02    4  4  3  1
  8.553762737085e-01    4  4  3  3
  9.246211550530e-01    4  4  4  4
  9.565611846572e-03    5  1  4  2
 -2.101913963352e-07    5  1  4  3
  2.513622594057e-02    5  1  5  1
  9.565645704628e-03    5  2  4  1
  1.621898761183e-02    5  2  4  3
 -2.101915164804e-07    5  2  5  1
  3.617740579509e-02    5  2  5  2
 -2.101921403422e-07    5  3  4  1
 -1.621900702326e-02    5  3  4  2
 -9.565617708758e-03    5  3  5  1
  3.617742679742e-02    5  3  5  3
 -1.822265139661e-02    5  4  2  1
  4.004181436253e-07    5  4  3  1
  1.992341167895e-08    5  4  3  2
  3.602598576454e-02    5  4  5  4
  8.621556568580e-01    5  5  1  1
  4.004176417212e-07    5  5  2  1
  8.553761971332e-01    5  5  2  2
  1.822262926925e-02    5  5  3  1
  8.553761869592e-01    5  5  3  3
  8.525691757608e-01    5  5  4  4
  9.246211395268e-01    5  5  5  5
  5.365470109123e-03    6  1  1  1
  2.071464712205e-03    6  1  2  2
 -6.772185327593e-09    6  1  3  1
  2.071466021741e-03    6  1  3  3
  4.118996913264e-03    6  1  4  4
  4.118992787551e-03    6  1  5  5
  9.460348763651e-03    6  1  6  1
 -7.153847573291e-04    6  2  2  1
 -3.096409587360e-10    6  2  3  2
  1.229829356086e-08    6  2  4  4
  5.597170830757e-04    6  2  5  4
 -1.229975927301e-08    6  2  5  5
  9.071131955603e-03    6  2  6  2
 -3.502961485644e-08    6  3  1  1
 -3.393685151898e-08    6  3  2  2
 -7.153830842795e-04    6  3  3  1
 -3.455614057940e-08    6  3  3  3
  5.596827351089e-04    6  3  4  4
 -1.229900531036e-08    6  3  5  4
 -5.597495094488e-04    6  3  5  5
 -1.992739918754e-10    6  3  6  1
  9.071130413037e-03    6  3  6  3
  6.780728341712e-04    6  4  4  1
  1.713323144967e-08    6  4  4  2
  7.797167255999e-04    6  4  4  3
  7.797186531421e-04    6  4  5  2
 -1.713325340813e-08    6  4  5  3
  8.914328694635e-03    6  4  6  4
  7.797205907654e-04    6  5  4  2
 -1.713329594415e-08    6  5  4  3
  6.780719775548e-04    6  5  5  1
 -1.713333829500e-08    6  5  5  2
 -7.797215901329e-04    6  5  5  3
  8.914328398079e-03    6  5  6  5
  3.945826286227e-01    6  6  1  1
  3.969283122298e-01    6  6  2  2
 -2.108422164328e-11    6  6  3  1
  3.969283153093e-01    6  6  3  3
  3.960235615293e-01    6  6  4  4
  3.960235592353e-01    6  6  5  5
  1.347100652671e-04    6  6  6  1
 -5.104315480674e-09    6  6  6  3
  3.129308522999e-01    6  6  6  6
 -5.477530962703e+00    1  1  0  0
 -5.546721204567e+00    2  2  0  0
  1.188800004622e-09    3  1  0  0
 -5.546721351109e+00    3  3  0  0
 -5.534015418726e+00    4  4  0  0
 -5.534015382397e+00    5  5  0  0
 -1.788010148478e-02    6  1  0  0
  3.977968179150e-12    6  2  0  0
  1.812408995025e-07    6  3  0  0
 -2.896380247543e+00    6  6  0  0
   -101.625621057536   0  0  0  0
