#INFO: **** input file is /projects/bamu3429/BENCHMARK/fresh_atoms/MRPT/vdz/atoms/Fe_1/mrpt.py ****
import json
from pyscf import gto,scf,mcscf, fci, lo, ci, cc
from pyscf.scf import ROHF, UHF,ROKS
import numpy as np
import pandas as pd

# THIS IS WERE IT STARTS ====================================

df=json.load(open("../../../trail.json"))

spins={'Sc':1, 'Ti':2, 'V':3, 'Cr':6, 'Mn':5, 'Fe':4, 'Cu':1}

nd={'Sc':(1,0), 'Ti':(2,0), 'V':(3,0), 'Cr':(5,0), 'Mn':(5,0), 'Fe':(5,1), 'Cu':(5,5)}

cas={'Sc':3, 'Ti':4, 'V':5, 'Cr':6, 'Mn':7, 'Fe':8, 'Cu':11}

datacsv={}
for nm in ['atom','charge','method','basis','pseudopotential','hf',
           'totalenergy','totalenergy-stocherr','totalenergy-syserr']:
  datacsv[nm]=[]

basis='vdz'
el='Fe'
charge=1

mol=gto.Mole()
mol.ecp={}
mol.basis={}
mol.ecp[el]=gto.basis.parse_ecp(df[el]['ecp'])
mol.basis[el]=gto.basis.parse(df[el][basis])
mol.charge=charge
if el == 'Cr' or el == 'Cu':
  mol.spin=spins[el]-charge
else:
  mol.spin=spins[el]+charge
mol.build(atom="%s 0. 0. 0."%el,verbose=4)

m=ROHF(mol)
m.level_shift=1000.0
dm=m.from_chk("../../../../HF/atoms/"+el+basis+str(charge)+".chk")
hf=m.kernel(dm)
m.analyze()

from pyscf.shciscf import shci
mc = shci.SHCISCF(m, 6, cas[el]-charge)
#mc.fcisolver.conv_tol = 1e-14
mc.fcisolver.mpiprefix="srun -n20"
mc.fcisolver.num_thrds=12
mc.verbose = 4
cas=mc.kernel()[0]
 
from pyscf.icmpspt import icmpspt
pt=icmpspt.icmpspt(mc,rdmM=500, PTM=1000,\
                          pttype="MRLCC",\
                          third_order=True,\
                          fully_ic=True,\
                          do_dm4=True)

datacsv['atom'].append(el)
datacsv['charge'].append(charge)
datacsv['method'].append('MRPT')
datacsv['basis'].append(basis)
datacsv['pseudopotential'].append('trail')
datacsv['hf'].append(hf)
datacsv['totalenergy'].append(cas+pt)
datacsv['totalenergy-stocherr'].append(0.0)
datacsv['totalenergy-syserr'].append(0.0)
pd.DataFrame(datacsv).to_csv(el+".csv",index=False)

#INFO: ******************** input file end ********************


System: ('Linux', 'bnode0302.rc.int.colorado.edu', '3.10.0-514.41.1.el7.x86_64', '#1 SMP Wed Jan 17 10:26:16 EST 2018', 'x86_64', 'x86_64')  Threads 28
Python 2.7.11 (default, Mar 22 2016, 01:42:54) 
[GCC Intel(R) C++ gcc 4.8 mode]
numpy 1.11.1  scipy 0.17.1
Date: Wed Apr 18 12:12:07 2018
PySCF version 1.4.6
PySCF path  /projects/bamu3429/softwares/pyscf_uptodate/pyscf
GIT ORIG_HEAD f3591ef22170896a4cdc2aadaa6f5da388ffcadb
GIT HEAD      ref: refs/heads/master
GIT master branch  1847583fb1d2472321833d3c71c8b7008e5fabf5

[INPUT] VERBOSE 4
[INPUT] num atoms = 1
[INPUT] num electrons = 15
[INPUT] charge = 1
[INPUT] spin (= nelec alpha-beta = 2S) = 5
[INPUT] symmetry False subgroup None
[INPUT]  1 Fe     0.000000000000   0.000000000000   0.000000000000 AA    0.000000000000   0.000000000000   0.000000000000 Bohr
[INPUT] ---------------- BASIS SET ---------------- 
[INPUT] l, kappa, [nprim/nctr], expnt,             c_1 c_2 ...
[INPUT] Fe
[INPUT] 0    0    [12   /1   ]  41.79315189       0.013363
                                21.4479766        -0.225831
                                13.50597996       1.092302
                                9.47978339        -1.379238
                                4.48116767        0.183004
                                2.00533715        0.377557
                                1.21557711        0.591529
                                0.52042955        0.236703
                                0.24120153        -0.029854
                                0.11142434        0.02048
                                0.05213724        -0.006828
                                0.02419858        0.002604
[INPUT] 0    0    [12   /1   ]  41.79315189       -0.002034
                                21.4479766        0.04181
                                13.50597996       -0.22265
                                9.47978339        0.296462
                                4.48116767        -0.039261
                                2.00533715        -0.090727
                                1.21557711        -0.230375
                                0.52042955        -0.197211
                                0.24120153        0.111234
                                0.11142434        0.439139
                                0.05213724        0.516418
                                0.02419858        0.126845
[INPUT] 0    0    [12   /1   ]  41.79315189       -0.004323
                                21.4479766        0.132016
                                13.50597996       -0.841007
                                9.47978339        1.270608
                                4.48116767        -0.357855
                                2.00533715        -1.172638
                                1.21557711        0.080918
                                0.52042955        0.564238
                                0.24120153        0.803759
                                0.11142434        0.166439
                                0.05213724        -0.599817
                                0.02419858        -0.320989
[INPUT] 0    0    [1    /1   ]  0.02419858           1
[INPUT] 0    0    [1    /1   ]  0.01123134           1
[INPUT] 1    0    [12   /1   ]  66.19105244       0.00032
                                34.58074578       -0.003142
                                17.77781378       0.029707
                                9.38371315        -0.152873
                                5.85185491        0.094627
                                3.39352009        0.227547
                                1.80084269        0.448024
                                0.88349057        0.318306
                                0.45376195        0.097682
                                0.18864625        0.012314
                                0.07756623        -0.001004
                                0.03189313        0.000474
[INPUT] 1    0    [12   /1   ]  66.19105244       -1.8e-05
                                34.58074578       0.000416
                                17.77781378       -0.005911
                                9.38371315        0.03555
                                5.85185491        -0.025962
                                3.39352009        -0.059781
                                1.80084269        -0.122371
                                0.88349057        -0.102075
                                0.45376195        0.039881
                                0.18864625        0.346137
                                0.07756623        0.528115
                                0.03189313        0.237416
[INPUT] 1    0    [12   /1   ]  66.19105244       -0.000834
                                34.58074578       0.002604
                                17.77781378       0.016549
                                9.38371315        -0.211504
                                5.85185491        0.182022
                                3.39352009        0.789997
                                1.80084269        0.110593
                                0.88349057        -0.853215
                                0.45376195        -0.426908
                                0.18864625        0.584503
                                0.07756623        0.418096
                                0.03189313        0.004159
[INPUT] 1    0    [1    /1   ]  0.03189313           1
[INPUT] 1    0    [1    /1   ]  0.01311358           1
[INPUT] 2    0    [10   /1   ]  58.21685909       0.000311
                                24.96806153       -0.010386
                                12.44413704       0.126915
                                5.48395408        0.166806
                                2.79137309        0.262721
                                1.34407118        0.316542
                                0.61230651        0.280074
                                0.27095461        0.158069
                                0.12811374        0.049028
                                0.05904405        0.008369
[INPUT] 2    0    [10   /1   ]  58.21685909       0.000264
                                24.96806153       0.008003
                                12.44413704       -0.131894
                                5.48395408        -0.228203
                                2.79137309        -0.382561
                                1.34407118        -0.063105
                                0.61230651        0.332607
                                0.27095461        0.402603
                                0.12811374        0.213988
                                0.05904405        0.04923
[INPUT] 2    0    [1    /1   ]  0.05904405           1
[INPUT] 2    0    [1    /1   ]  0.02721175           1
[INPUT] 3    0    [1    /1   ]  2.703381             1
[INPUT] 3    0    [1    /1   ]  1.2459129            1
nuclear repulsion = 0
number of shells = 16
number of NR pGTOs = 276
number of NR cGTOs = 54
basis = {'Fe': [[0, [41.79315189, 0.013363], [21.4479766, -0.225831], [13.50597996, 1.092302], [9.47978339, -1.379238], [4.48116767, 0.183004], [2.00533715, 0.377557], [1.21557711, 0.591529], [0.52042955, 0.236703], [0.24120153, -0.029854], [0.11142434, 0.02048], [0.05213724, -0.006828], [0.02419858, 0.002604]], [0, [41.79315189, -0.002034], [21.4479766, 0.04181], [13.50597996, -0.22265], [9.47978339, 0.296462], [4.48116767, -0.039261], [2.00533715, -0.090727], [1.21557711, -0.230375], [0.52042955, -0.197211], [0.24120153, 0.111234], [0.11142434, 0.439139], [0.05213724, 0.516418], [0.02419858, 0.126845]], [0, [41.79315189, -0.004323], [21.4479766, 0.132016], [13.50597996, -0.841007], [9.47978339, 1.270608], [4.48116767, -0.357855], [2.00533715, -1.172638], [1.21557711, 0.080918], [0.52042955, 0.564238], [0.24120153, 0.803759], [0.11142434, 0.166439], [0.05213724, -0.599817], [0.02419858, -0.320989]], [0, [0.02419858, 1.0]], [0, [0.01123134, 1.0]], [1, [66.19105244, 0.00032], [34.58074578, -0.003142], [17.77781378, 0.029707], [9.38371315, -0.152873], [5.85185491, 0.094627], [3.39352009, 0.227547], [1.80084269, 0.448024], [0.88349057, 0.318306], [0.45376195, 0.097682], [0.18864625, 0.012314], [0.07756623, -0.001004], [0.03189313, 0.000474]], [1, [66.19105244, -1.8e-05], [34.58074578, 0.000416], [17.77781378, -0.005911], [9.38371315, 0.03555], [5.85185491, -0.025962], [3.39352009, -0.059781], [1.80084269, -0.122371], [0.88349057, -0.102075], [0.45376195, 0.039881], [0.18864625, 0.346137], [0.07756623, 0.528115], [0.03189313, 0.237416]], [1, [66.19105244, -0.000834], [34.58074578, 0.002604], [17.77781378, 0.016549], [9.38371315, -0.211504], [5.85185491, 0.182022], [3.39352009, 0.789997], [1.80084269, 0.110593], [0.88349057, -0.853215], [0.45376195, -0.426908], [0.18864625, 0.584503], [0.07756623, 0.418096], [0.03189313, 0.004159]], [1, [0.03189313, 1.0]], [1, [0.01311358, 1.0]], [2, [58.21685909, 0.000311], [24.96806153, -0.010386], [12.44413704, 0.126915], [5.48395408, 0.166806], [2.79137309, 0.262721], [1.34407118, 0.316542], [0.61230651, 0.280074], [0.27095461, 0.158069], [0.12811374, 0.049028], [0.05904405, 0.008369]], [2, [58.21685909, 0.000264], [24.96806153, 0.008003], [12.44413704, -0.131894], [5.48395408, -0.228203], [2.79137309, -0.382561], [1.34407118, -0.063105], [0.61230651, 0.332607], [0.27095461, 0.402603], [0.12811374, 0.213988], [0.05904405, 0.04923]], [2, [0.05904405, 1.0]], [2, [0.02721175, 1.0]], [3, [2.703381, 1.0]], [3, [1.2459129, 1.0]]]}
ecp = {'Fe': [10, [[-1, [[], [[16.90683491, 16.0]], [[18.40258134, 26847.81569895], [6.30300831, -133.54888707], [18.42848726, -26765.4049232], [18.43432023, 1.00742417]], [[7.01300654, 270.50935856]]]], [0, [[], [], [[9.62463353, 20308.8999348], [9.1270955, -17595.21707731], [7.5416384, 1884.69012383], [12.70900949, -4483.50209856], [8.14863339, -1094.38597968], [16.27611739, 1032.95376659]], []]], [1, [[], [], [[11.36514719, -905.00711112], [14.56762424, 34640.9358259], [15.05861359, -42299.94223895], [17.41337089, 10633.68808757], [18.3746752, -5844.19723669], [17.04734437, 3803.80414779]], []]], [2, [[], [], [[10.13935738, -11031.18647055], [13.45796076, 16711.37502047], [10.97387824, 37989.95033676], [11.92919033, -41782.92514683], [17.7123012, 3812.58339812], [17.32108913, -5718.00854971]], []]]]]}
CPU time:         3.64


******** <class 'pyscf.scf.rohf.ROHF'> flags ********
method = ROHF
initial guess = minao
damping factor = 0
level shift factor = 1000.0
DIIS = <class 'pyscf.scf.diis.CDIIS'>
DIIS start cycle = 1
DIIS space = 8
SCF tol = 1e-09
SCF gradient tol = None
max. SCF cycles = 50
direct_scf = True
direct_scf_tol = 1e-13
chkfile to save SCF result = /rc_scratch/bamu3429/tmpGAruVS
max_memory 4000 MB (current use 112 MB)
num. doubly occ = 5  num. singly occ = 5
Set gradient conv threshold to 3.16228e-05
init E= -122.79860715249
  HOMO = 499.607708513097  LUMO = 999.850708394843
cycle= 1 E= -122.79860715249  delta_E= -1.71e-13  |g|= 6.1e-06  |ddm|= 3.26e-08
  HOMO = -0.392291487644996  LUMO = -0.149291605376465
Extra cycle  E= -122.798607152512  delta_E= -2.13e-11  |g|= 3.94e-06  |ddm|= 2.26e-05
converged SCF energy = -122.798607152512
**** MO energy ****
                Roothaan           | alpha              | beta
MO #1   energy= -4.7342061545627   | -4.92719202482016  | -4.54122028245896  occ= 2
MO #2   energy= -3.11810387655277  | -3.37022743707413  | -2.86598031603141  occ= 2
MO #3   energy= -3.11810385458429  | -3.37022724330531  | -2.86598046586329  occ= 2
MO #4   energy= -3.10853181268347  | -3.29131624230794  | -2.92574738305901  occ= 2
MO #5   energy= -0.864582491056606 | -0.934583206130439 | -0.794581775540439 occ= 2
MO #6   energy= -0.509610993087851 | -1.02578126878686  | 0.00655886308204691 occ= 1
MO #7   energy= -0.509610980298036 | -1.02578138239975  | 0.00655890490751927 occ= 1
MO #8   energy= -0.471830438911658 | -0.992788668931536 | 0.0491277052368307 occ= 1
MO #9   energy= -0.471830346870968 | -0.992788588002618 | 0.0491278083892675 occ= 1
MO #10  energy= -0.392291487644996 | -0.56674226526732  | -0.217840623998736 occ= 1
MO #11  energy= -0.149291605376465 | -0.178666119860634 | -0.119917090892298 occ= 0
MO #12  energy= -0.149291591876019 | -0.178666096222205 | -0.119917087529833 occ= 0
MO #13  energy= -0.143920518576056 | -0.169439812752127 | -0.118401224399994 occ= 0
MO #14  energy= -0.0842006226145662 | -0.0863098852004127 | -0.0820914169983946 occ= 0
MO #15  energy= -0.0558949308340234 | -0.0610046787879024 | -0.0507851828801461 occ= 0
MO #16  energy= -0.0558949279152392 | -0.0610046749973647 | -0.0507851808331148 occ= 0
MO #17  energy= -0.0546898237164823 | -0.0594596230143311 | -0.0499200244186336 occ= 0
MO #18  energy= -0.0460106914480291 | -0.0477847021056363 | -0.0442366420933114 occ= 0
MO #19  energy= -0.046010689710795 | -0.0477847025501322 | -0.0442366472470336 occ= 0
MO #20  energy= -0.0453396614164353 | -0.0465650655225693 | -0.0441142573843587 occ= 0
MO #21  energy= -0.045310653161991 | -0.0470304547321024 | -0.0435908336901008 occ= 0
MO #22  energy= -0.0453106514749058 | -0.0470304529124733 | -0.0435908321355359 occ= 0
MO #23  energy= 0.038982771548052  | 0.0304582731205349 | 0.0475071664896188 occ= 0
MO #24  energy= 0.0705972427862783 | 0.0608393579854034 | 0.080355214865852  occ= 0
MO #25  energy= 0.070597249356882  | 0.060839362156079  | 0.080355216733313  occ= 0
MO #26  energy= 0.0716842682650435 | 0.0653884513415426 | 0.0779800839314218 occ= 0
MO #27  energy= 0.0730549391441857 | 0.0631267442138442 | 0.0829830434472767 occ= 0
MO #28  energy= 0.0730549452055244 | 0.0631267498667415 | 0.0829830499170699 occ= 0
MO #29  energy= 0.0755341090883901 | 0.0522760305922446 | 0.0987921875845345 occ= 0
MO #30  energy= 0.0755341240040602 | 0.0522760503815951 | 0.0987921976265243 occ= 0
MO #31  energy= 0.0817536845173292 | 0.0605199139208675 | 0.102987455113792  occ= 0
MO #32  energy= 1.42441688708142   | 1.38301435853197   | 1.46581945484527   occ= 0
MO #33  energy= 1.43944569766186   | 1.32872273955762   | 1.55016905575915   occ= 0
MO #34  energy= 1.4394457974634    | 1.32872281276522   | 1.55016908281795   occ= 0
MO #35  energy= 1.46345072943657   | 1.34957760280263   | 1.57732401466737   occ= 0
MO #36  energy= 1.46345078843634   | 1.34957765427749   | 1.57732408119204   occ= 0
MO #37  energy= 1.5728816476168    | 1.50792751658081   | 1.63783581291267   occ= 0
MO #38  energy= 3.15923380517608   | 3.06943895026736   | 3.24902866008481   occ= 0
MO #39  energy= 3.15923389347433   | 3.0694390933709    | 3.24902869357775   occ= 0
MO #40  energy= 3.19222738553003   | 3.11922857416693   | 3.26522619689313   occ= 0
MO #41  energy= 3.26000119603593   | 3.15796814331772   | 3.36203424875414   occ= 0
MO #42  energy= 3.26000119603594   | 3.15796814331774   | 3.36203424875415   occ= 0
MO #43  energy= 3.27613889236813   | 3.22128497102501   | 3.33099281371126   occ= 0
MO #44  energy= 3.27745893463855   | 3.20114422476779   | 3.35377364450932   occ= 0
MO #45  energy= 3.27745897047292   | 3.20114428223381   | 3.35377365871203   occ= 0
MO #46  energy= 3.27859873017993   | 3.1698549870982    | 3.38734247326166   occ= 0
MO #47  energy= 3.27859873331693   | 3.16985499540134   | 3.38734247123253   occ= 0
MO #48  energy= 9.3187434623896    | 9.20654913062404   | 9.43093779415517   occ= 0
MO #49  energy= 9.31874346238961   | 9.20654913062407   | 9.43093779415518   occ= 0
MO #50  energy= 9.34139016631867   | 9.22146193584719   | 9.46131839679011   occ= 0
MO #51  energy= 9.34139017255653   | 9.22146195393021   | 9.46131839118286   occ= 0
MO #52  energy= 9.35129232528118   | 9.2668822459867    | 9.43570240457569   occ= 0
MO #53  energy= 9.35129238741709   | 9.26688233387192   | 9.4357024409623    occ= 0
MO #54  energy= 9.35382130715324   | 9.28807627576363   | 9.41956633854286   occ= 0
 ** Mulliken pop on meta-lowdin orthogonal AOs  **
 ** Mulliken pop  **
pop of  0Fe 3s        1.99996
pop of  0Fe 4s        0.96314
pop of  0Fe 5s        0.01355
pop of  0Fe 6s        0.01790
pop of  0Fe 7s        0.00522
pop of  0Fe 3px       1.99980
pop of  0Fe 3py       1.99980
pop of  0Fe 3pz       1.99992
pop of  0Fe 4px       0.00012
pop of  0Fe 4py       0.00012
pop of  0Fe 4pz       0.00006
pop of  0Fe 5px       0.00000
pop of  0Fe 5py       0.00000
pop of  0Fe 5pz       0.00000
pop of  0Fe 6px       0.00000
pop of  0Fe 6py       0.00000
pop of  0Fe 6pz       0.00000
pop of  0Fe 7px       0.00000
pop of  0Fe 7py       0.00000
pop of  0Fe 7pz       0.00000
pop of  0Fe 3dxy      0.99701
pop of  0Fe 3dyz      0.99768
pop of  0Fe 3dz^2     1.99901
pop of  0Fe 3dxz      0.99768
pop of  0Fe 3dx2-y2    0.99701
pop of  0Fe 4dxy      0.00186
pop of  0Fe 4dyz      0.00136
pop of  0Fe 4dz^2     0.00041
pop of  0Fe 4dxz      0.00136
pop of  0Fe 4dx2-y2    0.00186
pop of  0Fe 5dxy      0.00111
pop of  0Fe 5dyz      0.00094
pop of  0Fe 5dz^2     0.00080
pop of  0Fe 5dxz      0.00094
pop of  0Fe 5dx2-y2    0.00111
pop of  0Fe 6dxy      0.00002
pop of  0Fe 6dyz      0.00002
pop of  0Fe 6dz^2     0.00002
pop of  0Fe 6dxz      0.00002
pop of  0Fe 6dx2-y2    0.00002
pop of  0Fe 4fy^3     0.00000
pop of  0Fe 4fxyz     0.00000
pop of  0Fe 4fyz^2    0.00004
pop of  0Fe 4fz^3     0.00000
pop of  0Fe 4fxz^2    0.00004
pop of  0Fe 4fzx^2    0.00000
pop of  0Fe 4fx^3     0.00000
pop of  0Fe 5fy^3     0.00000
pop of  0Fe 5fxyz     0.00000
pop of  0Fe 5fyz^2    0.00004
pop of  0Fe 5fz^3     0.00001
pop of  0Fe 5fxz^2    0.00004
pop of  0Fe 5fzx^2    0.00000
pop of  0Fe 5fx^3     0.00000
 ** Mulliken atomic charges  **
charge of  0Fe =      1.00000

******** <class 'pyscf.mcscf.mc1step.CASSCF'> flags ********
CAS (6e+1e, 6o), ncore = 4, nvir = 44
max_cycle_macro = 50
max_cycle_micro = 4
conv_tol = 1e-07
conv_tol_grad = None
orbital rotation max_stepsize = 0.02
augmented hessian ah_max_cycle = 30
augmented hessian ah_conv_tol = 1e-12
augmented hessian ah_linear dependence = 1e-14
augmented hessian ah_level shift = 0
augmented hessian ah_start_tol = 2.5
augmented hessian ah_start_cycle = 3
augmented hessian ah_grad_trust_region = 3
kf_trust_region = 3
kf_interval = 4
ci_response_space = 4
ci_grad_trust_region = 3
with_dep4 0
natorb = False
canonicalization = True
sorting_mo_energy = False
chkfile = ./scratch/1265/tmpZV0Qlm
max_memory 4000 MB (current use 156 MB)
internal_rotation = False

******** SHCI flags ********
executable             = /home/bamu3429/softwares/dice/Dice
mpiprefix              = srun -n20
scratchDirectory       = ./scratch/1265
integralFile           = ./FCIDUMP
configFile             = ./input.dat
outputFile             = ./output.dat
maxIter                = 6
sweep_iter             = []
sweep_epsilon          = []
nPTiter                = 0
Stochastic             = True
fullrestart            = False
restart                = False
num_thrds              = 12
memory                 = None

CASCI E = -122.798607152513  S^2 = 8.7500000
Set conv_tol_grad to 0.000316228
macro iter 1 (1 JK  1 micro), CASSCF E = -122.798607152513  dE = 0  S^2 = 8.7500000
               |grad[o]|=3.82e-06  |grad[c]|= None  |ddm|=    0
1-step CASSCF converged in 1 macro (1 JK 1 micro) steps
CASSCF canonicalization
CASSCF energy = -122.798607152513


--------------------------------------------------
                 ICMPSPT CALCULATION              
--------------------------------------------------

Perturbation type: MRLCC
With fully internally contracted scheme
With third order correction

Preparing necessary RDMs
......production of RDMs took      11.75 sec
Reading binary 4RDM from DICE
......reading the RDM took          1.18 sec

(GOOD) Trace 4RDM:    840.0 =    7*    6*    5*    4
(GOOD) Trace 3RDM:    210.0 =    7*    6*    5
(GOOD) Trace 2RDM:     42.0 =    7*    6
(GOOD) Trace 1RDM:      7.0 =    7

Producing the integrals
......production of INT took      28.98 sec

Energy_core = -101.62562106
Energy      = -122.79860715

WARNING: Have to use natural orbitals from CAASCF
         offdiagonal elements:    0.70426814

Basic ingredients written to int/
......savings of INGREDIENTS took      22.51 sec

Second-order:
perturber CCVV --        -0.072179861
perturber CCAV --        -0.033826335
perturber ACVV --        -0.127883144
perturber CCAA --        -0.017598470
perturber AAVV --        -0.126213759
perturber CAAV --        -0.093876627
perturber AAAV --        -0.002221364
perturber AAAC --        -0.000000000
Total:                   -0.473799560

Third-order:              0.000043256

Total PT       --        -0.473756304

