 &FCI NORB=6 ,NELEC=7 ,MS2=5,
  ORBSYM=1,1,1,1,1,1,
  ISYM=1,
 &END
  8.985882902303e-01    1  1  1  1
  4.038553205986e-02    2  1  2  1
  8.337115727739e-01    2  2  1  1
  9.359057190912e-01    2  2  2  2
  3.553063519317e-02    3  1  3  1
 -7.953737088961e-03    3  2  3  1
  2.592535282421e-02    3  2  3  2
  8.440035756445e-01    3  3  1  1
  1.531067018120e-02    3  3  2  1
  8.829393386652e-01    3  3  2  2
  9.330706545845e-01    3  3  3  3
  5.225238769607e-03    4  1  3  2
  3.553063519317e-02    4  1  4  1
  5.225238769607e-03    4  2  3  1
  7.953737088961e-03    4  2  4  1
  2.592535282421e-02    4  2  4  2
 -1.005840481332e-02    4  3  2  1
  1.589926445161e-04    4  3  3  3
  3.656112306741e-02    4  3  4  3
  8.440035756445e-01    4  4  1  1
 -1.531067018120e-02    4  4  2  1
  8.829393386652e-01    4  4  2  2
  8.602235365883e-01    4  4  3  3
 -1.589926445171e-04    4  4  4  3
  9.330706545845e-01    4  4  4  4
  1.950947741839e-02    5  1  5  1
 -1.028334514907e-02    5  2  3  3
 -1.565306913562e-02    5  2  4  3
  1.028334514907e-02    5  2  4  4
  4.157845997193e-02    5  2  5  2
  5.271089017275e-03    5  3  3  2
  1.616190862969e-02    5  3  4  1
  8.023529271002e-03    5  3  4  2
  3.646238759713e-02    5  3  5  3
 -1.616190862969e-02    5  4  3  1
  8.023529271002e-03    5  4  3  2
 -5.271089017275e-03    5  4  4  2
  3.646238759713e-02    5  4  5  4
  8.728899505272e-01    5  5  1  1
  8.461570294532e-01    5  5  2  2
  8.565503698627e-01    5  5  3  3
  8.565503698627e-01    5  5  4  4
  9.256624993586e-01    5  5  5  5
 -2.261962702660e-03    6  1  2  1
 -1.270969379094e-03    6  1  3  3
  8.349683174519e-04    6  1  4  3
  1.270969379094e-03    6  1  4  4
  1.001100045370e-02    6  1  6  1
 -1.203307278558e-02    6  2  1  1
 -1.207643043206e-02    6  2  2  2
 -1.152468385440e-02    6  2  3  3
 -1.152468385440e-02    6  2  4  4
 -1.192354727484e-02    6  2  5  5
  9.675160169387e-03    6  2  6  2
 -5.477315653592e-04    6  3  3  1
 -5.385190525999e-05    6  3  3  2
  3.598343996842e-04    6  3  4  1
  2.753498519203e-04    6  3  5  3
  4.191311490677e-04    6  3  5  4
  9.357668085261e-03    6  3  6  3
  3.598343996841e-04    6  4  3  1
  5.477315653592e-04    6  4  4  1
 -5.385190526001e-05    6  4  4  2
  4.191311490677e-04    6  4  5  3
 -2.753498519203e-04    6  4  5  4
  9.357668085261e-03    6  4  6  4
  6.512855646517e-04    6  5  3  3
  9.913717591634e-04    6  5  4  3
 -6.512855646513e-04    6  5  4  4
 -1.703498956289e-03    6  5  5  2
  9.284768608567e-03    6  5  6  5
  4.054495001846e-01    6  6  1  1
  4.084152353473e-01    6  6  2  2
  4.080602430598e-01    6  6  3  3
  4.080602430598e-01    6  6  4  4
  4.069538894213e-01    6  6  5  5
 -1.784141723723e-03    6  6  6  2
  3.232751130206e-01    6  6  6  6
 -5.476452948323e+00    1  1  0  0
 -5.554704001587e+00    2  2  0  0
 -5.551162352786e+00    3  3  0  0
 -5.551162352786e+00    4  4  0  0
 -5.535593771011e+00    5  5  0  0
  6.280179894430e-02    6  2  0  0
 -2.962233506038e+00    6  6  0  0
   -101.635111490876   0  0  0  0
