#INFO: **** input file is /projects/bamu3429/BENCHMARK/fresh_atoms/MRPT/vqz/atoms/Fe_1/mrpt.py ****
import json
from pyscf import gto,scf,mcscf, fci, lo, ci, cc
from pyscf.scf import ROHF, UHF,ROKS
import numpy as np
import pandas as pd

# THIS IS WERE IT STARTS ====================================

df=json.load(open("../../../trail.json"))

spins={'Sc':1, 'Ti':2, 'V':3, 'Cr':6, 'Mn':5, 'Fe':4, 'Cu':1}

nd={'Sc':(1,0), 'Ti':(2,0), 'V':(3,0), 'Cr':(5,0), 'Mn':(5,0), 'Fe':(5,1), 'Cu':(5,5)}

cas={'Sc':3, 'Ti':4, 'V':5, 'Cr':6, 'Mn':7, 'Fe':8, 'Cu':11}

datacsv={}
for nm in ['atom','charge','method','basis','pseudopotential','hf',
           'totalenergy','totalenergy-stocherr','totalenergy-syserr']:
  datacsv[nm]=[]

basis='vqz'
el='Fe'
charge=1

mol=gto.Mole()
mol.ecp={}
mol.basis={}
mol.ecp[el]=gto.basis.parse_ecp(df[el]['ecp'])
mol.basis[el]=gto.basis.parse(df[el][basis])
mol.charge=charge
if el == 'Cr' or el == 'Cu':
  mol.spin=spins[el]-charge
else:
  mol.spin=spins[el]+charge
mol.build(atom="%s 0. 0. 0."%el,verbose=4)

m=ROHF(mol)
m.level_shift=1000.0
dm=m.from_chk("../../../../HF/atoms/"+el+basis+str(charge)+".chk")
hf=m.kernel(dm)
m.analyze()

from pyscf.shciscf import shci
mc = shci.SHCISCF(m, 6, cas[el]-charge)
#mc.fcisolver.conv_tol = 1e-14
mc.fcisolver.mpiprefix="mpirun -np 28"
mc.fcisolver.num_thrds=12
mc.verbose = 4
cas=mc.kernel()[0]
 
from pyscf.icmpspt import icmpspt
pt=icmpspt.icmpspt(mc,rdmM=500, PTM=1000,\
                          pttype="MRLCC",\
                          third_order=True,\
                          fully_ic=True,\
                          do_dm4=True)

datacsv['atom'].append(el)
datacsv['charge'].append(charge)
datacsv['method'].append('MRPT')
datacsv['basis'].append(basis)
datacsv['pseudopotential'].append('trail')
datacsv['hf'].append(hf)
datacsv['totalenergy'].append(cas+pt)
datacsv['totalenergy-stocherr'].append(0.0)
datacsv['totalenergy-syserr'].append(0.0)
pd.DataFrame(datacsv).to_csv(el+".csv",index=False)

#INFO: ******************** input file end ********************


System: ('Linux', 'bnode0308.rc.int.colorado.edu', '3.10.0-514.41.1.el7.x86_64', '#1 SMP Wed Jan 17 10:26:16 EST 2018', 'x86_64', 'x86_64')  Threads 1
Python 2.7.11 (default, Mar 22 2016, 01:42:54) 
[GCC Intel(R) C++ gcc 4.8 mode]
numpy 1.11.1  scipy 0.17.1
Date: Tue Mar 27 10:16:02 2018
PySCF version 1.4
PySCF path  /projects/bamu3429/softwares/pyscf_uptodate/pyscf
GIT ORIG_HEAD e2292e6edec2b0e0024c21b81de03db1d7bd4121
GIT HEAD      ref: refs/heads/master
GIT master branch  f3591ef22170896a4cdc2aadaa6f5da388ffcadb

[INPUT] VERBOSE 4
[INPUT] num atoms = 1
[INPUT] num electrons = 15
[INPUT] charge = 1
[INPUT] spin (= nelec alpha-beta = 2S) = 5
[INPUT] symmetry False subgroup None
[INPUT]  1 Fe     0.000000000000   0.000000000000   0.000000000000 AA    0.000000000000   0.000000000000   0.000000000000 Bohr
[INPUT] ---------------- BASIS SET ---------------- 
[INPUT] l, kappa, [nprim/nctr], expnt,             c_1 c_2 ...
[INPUT] Fe
[INPUT] 0    0    [12   /1   ]  41.79315189       0.013363
                                21.4479766        -0.225831
                                13.50597996       1.092302
                                9.47978339        -1.379238
                                4.48116767        0.183004
                                2.00533715        0.377557
                                1.21557711        0.591529
                                0.52042955        0.236703
                                0.24120153        -0.029854
                                0.11142434        0.02048
                                0.05213724        -0.006828
                                0.02419858        0.002604
[INPUT] 0    0    [12   /1   ]  41.79315189       -0.002034
                                21.4479766        0.04181
                                13.50597996       -0.22265
                                9.47978339        0.296462
                                4.48116767        -0.039261
                                2.00533715        -0.090727
                                1.21557711        -0.230375
                                0.52042955        -0.197211
                                0.24120153        0.111234
                                0.11142434        0.439139
                                0.05213724        0.516418
                                0.02419858        0.126845
[INPUT] 0    0    [12   /1   ]  41.79315189       -0.004837
                                21.4479766        0.142209
                                13.50597996       -0.903454
                                9.47978339        1.370339
                                4.48116767        -0.409377
                                2.00533715        -1.287567
                                1.21557711        0.205595
                                0.52042955        0.603911
                                0.24120153        0.738131
                                0.11142434        0.144644
                                0.05213724        -0.563073
                                0.02419858        -0.31909
[INPUT] 0    0    [12   /1   ]  41.79315189       -0.003884
                                21.4479766        0.166254
                                13.50597996       -1.213665
                                9.47978339        2.033455
                                4.48116767        -1.02974
                                2.00533715        -2.334822
                                1.21557711        2.086971
                                0.52042955        1.379229
                                0.24120153        -1.184835
                                0.11142434        -0.997257
                                0.05213724        0.546401
                                0.02419858        0.59844
[INPUT] 0    0    [12   /1   ]  41.79315189       -0.002831
                                21.4479766        -0.1658
                                13.50597996       1.74845
                                9.47978339        -3.545105
                                4.48116767        3.817957
                                2.00533715        0.21218
                                1.21557711        -4.041249
                                0.52042955        2.619566
                                0.24120153        1.026746
                                0.11142434        -2.118211
                                0.05213724        0.042195
                                0.02419858        0.853187
[INPUT] 0    0    [1    /1   ]  0.02419858           1
[INPUT] 0    0    [1    /1   ]  0.01123134           1
[INPUT] 1    0    [12   /1   ]  66.19105244       0.00032
                                34.58074578       -0.003142
                                17.77781378       0.029707
                                9.38371315        -0.152873
                                5.85185491        0.094627
                                3.39352009        0.227547
                                1.80084269        0.448024
                                0.88349057        0.318306
                                0.45376195        0.097682
                                0.18864625        0.012314
                                0.07756623        -0.001004
                                0.03189313        0.000474
[INPUT] 1    0    [12   /1   ]  66.19105244       -1.8e-05
                                34.58074578       0.000416
                                17.77781378       -0.005911
                                9.38371315        0.03555
                                5.85185491        -0.025962
                                3.39352009        -0.059781
                                1.80084269        -0.122371
                                0.88349057        -0.102075
                                0.45376195        0.039881
                                0.18864625        0.346137
                                0.07756623        0.528115
                                0.03189313        0.237416
[INPUT] 1    0    [12   /1   ]  66.19105244       -0.000757
                                34.58074578       0.002198
                                17.77781378       0.018471
                                9.38371315        -0.223198
                                5.85185491        0.199379
                                3.39352009        0.827171
                                1.80084269        0.013075
                                0.88349057        -0.896886
                                0.45376195        -0.312811
                                0.18864625        0.644499
                                0.07756623        0.378067
                                0.03189313        0.003975
[INPUT] 1    0    [12   /1   ]  66.19105244       -0.001362
                                34.58074578       0.004899
                                17.77781378       0.030086
                                9.38371315        -0.547347
                                5.85185491        1.144321
                                3.39352009        0.837657
                                1.80084269        -1.666445
                                0.88349057        -0.541803
                                0.45376195        1.568452
                                0.18864625        -0.154076
                                0.07756623        -0.636056
                                0.03189313        0.003625
[INPUT] 1    0    [12   /1   ]  66.19105244       -0.007466
                                34.58074578       0.041225
                                17.77781378       -0.113823
                                9.38371315        -0.593972
                                5.85185491        3.090393
                                3.39352009        -2.298941
                                1.80084269        -1.325372
                                0.88349057        2.843762
                                0.45376195        -1.264441
                                0.18864625        -0.765375
                                0.07756623        0.899235
                                0.03189313        -0.013792
[INPUT] 1    0    [1    /1   ]  0.03189313           1
[INPUT] 1    0    [1    /1   ]  0.01311358           1
[INPUT] 2    0    [10   /1   ]  58.21685909       0.000311
                                24.96806153       -0.010386
                                12.44413704       0.126915
                                5.48395408        0.166806
                                2.79137309        0.262721
                                1.34407118        0.316542
                                0.61230651        0.280074
                                0.27095461        0.158069
                                0.12811374        0.049028
                                0.05904405        0.008369
[INPUT] 2    0    [10   /1   ]  58.21685909       0.000385
                                24.96806153       0.007345
                                12.44413704       -0.129376
                                5.48395408        -0.235095
                                2.79137309        -0.387916
                                1.34407118        -0.056421
                                0.61230651        0.34416
                                0.27095461        0.401431
                                0.12811374        0.201425
                                0.05904405        0.045061
[INPUT] 2    0    [10   /1   ]  58.21685909       -0.002018
                                24.96806153       0.001015
                                12.44413704       0.127448
                                5.48395408        0.457991
                                2.79137309        0.230218
                                1.34407118        -0.694956
                                0.61230651        -0.373723
                                0.27095461        0.35233
                                0.12811374        0.420337
                                0.05904405        0.109669
[INPUT] 2    0    [10   /1   ]  58.21685909       -5.7e-05
                                24.96806153       -0.016008
                                12.44413704       0.319947
                                5.48395408        0.834009
                                2.79137309        -1.01955
                                1.34407118        -0.489125
                                0.61230651        0.956701
                                0.27095461        0.060729
                                0.12811374        -0.501922
                                0.05904405        -0.152504
[INPUT] 2    0    [1    /1   ]  0.05904405           1
[INPUT] 2    0    [1    /1   ]  0.02721175           1
[INPUT] 3    0    [1    /1   ]  4.808419             1
[INPUT] 3    0    [1    /1   ]  1.639843             1
[INPUT] 3    0    [1    /1   ]  0.559243             1
[INPUT] 3    0    [1    /1   ]  0.19072114           1
[INPUT] 4    0    [1    /1   ]  4.604195             1
[INPUT] 4    0    [1    /1   ]  1.569312             1
[INPUT] 4    0    [1    /1   ]  0.53489048           1
[INPUT] 5    0    [1    /1   ]  3.877747             1
[INPUT] 5    0    [1    /1   ]  1.32170656           1
nuclear repulsion = 0
number of shells = 29
number of NR pGTOs = 535
number of NR cGTOs = 135
basis = {'Fe': [[0, [41.79315189, 0.013363], [21.4479766, -0.225831], [13.50597996, 1.092302], [9.47978339, -1.379238], [4.48116767, 0.183004], [2.00533715, 0.377557], [1.21557711, 0.591529], [0.52042955, 0.236703], [0.24120153, -0.029854], [0.11142434, 0.02048], [0.05213724, -0.006828], [0.02419858, 0.002604]], [0, [41.79315189, -0.002034], [21.4479766, 0.04181], [13.50597996, -0.22265], [9.47978339, 0.296462], [4.48116767, -0.039261], [2.00533715, -0.090727], [1.21557711, -0.230375], [0.52042955, -0.197211], [0.24120153, 0.111234], [0.11142434, 0.439139], [0.05213724, 0.516418], [0.02419858, 0.126845]], [0, [41.79315189, -0.004837], [21.4479766, 0.142209], [13.50597996, -0.903454], [9.47978339, 1.370339], [4.48116767, -0.409377], [2.00533715, -1.287567], [1.21557711, 0.205595], [0.52042955, 0.603911], [0.24120153, 0.738131], [0.11142434, 0.144644], [0.05213724, -0.563073], [0.02419858, -0.31909]], [0, [41.79315189, -0.003884], [21.4479766, 0.166254], [13.50597996, -1.213665], [9.47978339, 2.033455], [4.48116767, -1.02974], [2.00533715, -2.334822], [1.21557711, 2.086971], [0.52042955, 1.379229], [0.24120153, -1.184835], [0.11142434, -0.997257], [0.05213724, 0.546401], [0.02419858, 0.59844]], [0, [41.79315189, -0.002831], [21.4479766, -0.1658], [13.50597996, 1.74845], [9.47978339, -3.545105], [4.48116767, 3.817957], [2.00533715, 0.21218], [1.21557711, -4.041249], [0.52042955, 2.619566], [0.24120153, 1.026746], [0.11142434, -2.118211], [0.05213724, 0.042195], [0.02419858, 0.853187]], [0, [0.02419858, 1.0]], [0, [0.01123134, 1.0]], [1, [66.19105244, 0.00032], [34.58074578, -0.003142], [17.77781378, 0.029707], [9.38371315, -0.152873], [5.85185491, 0.094627], [3.39352009, 0.227547], [1.80084269, 0.448024], [0.88349057, 0.318306], [0.45376195, 0.097682], [0.18864625, 0.012314], [0.07756623, -0.001004], [0.03189313, 0.000474]], [1, [66.19105244, -1.8e-05], [34.58074578, 0.000416], [17.77781378, -0.005911], [9.38371315, 0.03555], [5.85185491, -0.025962], [3.39352009, -0.059781], [1.80084269, -0.122371], [0.88349057, -0.102075], [0.45376195, 0.039881], [0.18864625, 0.346137], [0.07756623, 0.528115], [0.03189313, 0.237416]], [1, [66.19105244, -0.000757], [34.58074578, 0.002198], [17.77781378, 0.018471], [9.38371315, -0.223198], [5.85185491, 0.199379], [3.39352009, 0.827171], [1.80084269, 0.013075], [0.88349057, -0.896886], [0.45376195, -0.312811], [0.18864625, 0.644499], [0.07756623, 0.378067], [0.03189313, 0.003975]], [1, [66.19105244, -0.001362], [34.58074578, 0.004899], [17.77781378, 0.030086], [9.38371315, -0.547347], [5.85185491, 1.144321], [3.39352009, 0.837657], [1.80084269, -1.666445], [0.88349057, -0.541803], [0.45376195, 1.568452], [0.18864625, -0.154076], [0.07756623, -0.636056], [0.03189313, 0.003625]], [1, [66.19105244, -0.007466], [34.58074578, 0.041225], [17.77781378, -0.113823], [9.38371315, -0.593972], [5.85185491, 3.090393], [3.39352009, -2.298941], [1.80084269, -1.325372], [0.88349057, 2.843762], [0.45376195, -1.264441], [0.18864625, -0.765375], [0.07756623, 0.899235], [0.03189313, -0.013792]], [1, [0.03189313, 1.0]], [1, [0.01311358, 1.0]], [2, [58.21685909, 0.000311], [24.96806153, -0.010386], [12.44413704, 0.126915], [5.48395408, 0.166806], [2.79137309, 0.262721], [1.34407118, 0.316542], [0.61230651, 0.280074], [0.27095461, 0.158069], [0.12811374, 0.049028], [0.05904405, 0.008369]], [2, [58.21685909, 0.000385], [24.96806153, 0.007345], [12.44413704, -0.129376], [5.48395408, -0.235095], [2.79137309, -0.387916], [1.34407118, -0.056421], [0.61230651, 0.34416], [0.27095461, 0.401431], [0.12811374, 0.201425], [0.05904405, 0.045061]], [2, [58.21685909, -0.002018], [24.96806153, 0.001015], [12.44413704, 0.127448], [5.48395408, 0.457991], [2.79137309, 0.230218], [1.34407118, -0.694956], [0.61230651, -0.373723], [0.27095461, 0.35233], [0.12811374, 0.420337], [0.05904405, 0.109669]], [2, [58.21685909, -5.7e-05], [24.96806153, -0.016008], [12.44413704, 0.319947], [5.48395408, 0.834009], [2.79137309, -1.01955], [1.34407118, -0.489125], [0.61230651, 0.956701], [0.27095461, 0.060729], [0.12811374, -0.501922], [0.05904405, -0.152504]], [2, [0.05904405, 1.0]], [2, [0.02721175, 1.0]], [3, [4.808419, 1.0]], [3, [1.639843, 1.0]], [3, [0.559243, 1.0]], [3, [0.19072114, 1.0]], [4, [4.604195, 1.0]], [4, [1.569312, 1.0]], [4, [0.53489048, 1.0]], [5, [3.877747, 1.0]], [5, [1.32170656, 1.0]]]}
ecp = {'Fe': [10, [[-1, [[], [[16.90683491, 16.0]], [[18.40258134, 26847.81569895], [6.30300831, -133.54888707], [18.42848726, -26765.4049232], [18.43432023, 1.00742417]], [[7.01300654, 270.50935856]]]], [0, [[], [], [[9.62463353, 20308.8999348], [9.1270955, -17595.21707731], [7.5416384, 1884.69012383], [12.70900949, -4483.50209856], [8.14863339, -1094.38597968], [16.27611739, 1032.95376659]], []]], [1, [[], [], [[11.36514719, -905.00711112], [14.56762424, 34640.9358259], [15.05861359, -42299.94223895], [17.41337089, 10633.68808757], [18.3746752, -5844.19723669], [17.04734437, 3803.80414779]], []]], [2, [[], [], [[10.13935738, -11031.18647055], [13.45796076, 16711.37502047], [10.97387824, 37989.95033676], [11.92919033, -41782.92514683], [17.7123012, 3812.58339812], [17.32108913, -5718.00854971]], []]]]]}
CPU time:         0.66


******** <class 'pyscf.scf.rohf.ROHF'> flags ********
method = ROHF
initial guess = minao
damping factor = 0
level shift factor = 1000.0
DIIS = <class 'pyscf.scf.diis.CDIIS'>
DIIS start cycle = 1
DIIS space = 8
SCF tol = 1e-09
SCF gradient tol = None
max. SCF cycles = 50
direct_scf = True
direct_scf_tol = 1e-13
chkfile to save SCF result = /projects/bamu3429/BENCHMARK/fresh_atoms/MRPT/vqz/atoms/Fe_1/tmplNcZV5
max_memory 4000 MB (current use 83 MB)
num. doubly occ = 5  num. singly occ = 5
Set gradient conv threshold to 3.16228e-05
init E= -122.808876747107
  HOMO = 499.612944334564  LUMO = 999.851641254129
cycle= 1 E= -122.808876747107  delta_E= 2.84e-14  |g|= 5.18e-06  |ddm|= 1.44e-08
  HOMO = -0.387055665898509  LUMO = -0.148358746023044
Extra cycle  E= -122.808876747113  delta_E= -6.79e-12  |g|= 2.07e-06  |ddm|= 7.65e-06
converged SCF energy = -122.808876747113
**** MO energy ****
                Roothaan           | alpha              | beta
MO #1   energy= -4.71660753425766  | -4.91025593842121  | -4.52295909104647  occ= 2
MO #2   energy= -3.10059168945046  | -3.3785193036588   | -2.82266407524212  occ= 2
MO #3   energy= -3.09373667399852  | -3.30013262778396  | -2.88734072021309  occ= 2
MO #4   energy= -3.09373667399852  | -3.30013262778396  | -2.88734072021308  occ= 2
MO #5   energy= -0.848289040860751 | -0.918772719081315 | -0.777805362640191 occ= 2
MO #6   energy= -0.490813614419712 | -1.01031871393779  | 0.0286914114026582 occ= 1
MO #7   energy= -0.478529148540754 | -0.999217882383388 | 0.0421594545349267 occ= 1
MO #8   energy= -0.478529148540751 | -0.999217882383387 | 0.0421594545349281 occ= 1
MO #9   energy= -0.442173262199365 | -0.966898956503125 | 0.0825519847142637 occ= 1
MO #10  energy= -0.387055665898509 | -0.567531065173942 | -0.206580534683369 occ= 1
MO #11  energy= -0.148358746023044 | -0.177551203237402 | -0.119166288808685 occ= 0
MO #12  energy= -0.143405726152537 | -0.168699119520734 | -0.118112332784342 occ= 0
MO #13  energy= -0.143405726152535 | -0.168699119520734 | -0.118112332784342 occ= 0
MO #14  energy= -0.0846551966143688 | -0.0871561046160474 | -0.0821541811671612 occ= 0
MO #15  energy= -0.0557409105849928 | -0.0610633102248215 | -0.0504185109451628 occ= 0
MO #16  energy= -0.0546027595798707 | -0.0595316459495998 | -0.0496738732101393 occ= 0
MO #17  energy= -0.054602759579868 | -0.0595316459496002 | -0.0496738732101406 occ= 0
MO #18  energy= -0.0462307441423304 | -0.0481049730434383 | -0.0443565246705464 occ= 0
MO #19  energy= -0.0460112950270224 | -0.0478693029815422 | -0.0441532932692167 occ= 0
MO #20  energy= -0.0460112950270214 | -0.0478693029815419 | -0.0441532932692169 occ= 0
MO #21  energy= -0.0456455607397278 | -0.0469052247712436 | -0.0443858967082084 occ= 0
MO #22  energy= -0.0453352998819174 | -0.047138068729065 | -0.0435325218686123 occ= 0
MO #23  energy= 0.0305974885085647 | 0.0205743026156361 | 0.0406208179388619 occ= 0
MO #24  energy= 0.0637780130694225 | 0.0439760727753077 | 0.0835799533635346 occ= 0
MO #25  energy= 0.0683420873986468 | 0.050234157909947  | 0.0864500168873527 occ= 0
MO #26  energy= 0.0683420873986483 | 0.0502341579099486 | 0.086450016887354  occ= 0
MO #27  energy= 0.0717029224091228 | 0.0628420007003306 | 0.0805637466943607 occ= 0
MO #28  energy= 0.0724044679654863 | 0.0635145599656293 | 0.0812942966768219 occ= 0
MO #29  energy= 0.0724044679654894 | 0.0635145599656311 | 0.0812942966768231 occ= 0
MO #30  energy= 0.0726061816001994 | 0.0669936582885236 | 0.0782187049118767 occ= 0
MO #31  energy= 0.0746198176668387 | 0.0656883447947455 | 0.0835512683285979 occ= 0
MO #32  energy= 0.436723508912863  | 0.417515882162689  | 0.455931154542247  occ= 0
MO #33  energy= 0.470878090082572  | 0.45760872456079   | 0.484147455604352  occ= 0
MO #34  energy= 0.471408499838308  | 0.458283498675865  | 0.484533501000758  occ= 0
MO #35  energy= 0.471408499838311  | 0.458283498675863  | 0.48453350100076   occ= 0
MO #36  energy= 0.472948601954994  | 0.461176998438781  | 0.484720205471207  occ= 0
MO #37  energy= 0.473085141003936  | 0.459654271804326  | 0.486516010203545  occ= 0
MO #38  energy= 0.475703430966506  | 0.464491745769153  | 0.486915116163864  occ= 0
MO #39  energy= 0.47570343096651   | 0.464491745769153  | 0.486915116163866  occ= 0
MO #40  energy= 0.636727166934693  | 0.613604847948711  | 0.659849485920676  occ= 0
MO #41  energy= 0.638980665912035  | 0.588244060119524  | 0.689717404756568  occ= 0
MO #42  energy= 0.642587954188555  | 0.591214650514079  | 0.693961414059502  occ= 0
MO #43  energy= 0.642587954188559  | 0.591214650514077  | 0.6939614140595    occ= 0
MO #44  energy= 0.654169128236163  | 0.601345510824514  | 0.706993086698068  occ= 0
MO #45  energy= 1.11863224130198   | 1.06535084555556   | 1.1719136370484    occ= 0
MO #46  energy= 1.13724074164319   | 1.09375606085984   | 1.18072542242654   occ= 0
MO #47  energy= 1.13724074164319   | 1.09375606085984   | 1.18072542242654   occ= 0
MO #48  energy= 1.86754068118016   | 1.81445301813254   | 1.92062834422778   occ= 0
MO #49  energy= 1.86859099921541   | 1.81899490211092   | 1.9181870963199    occ= 0
MO #50  energy= 1.86859099921541   | 1.81899490211092   | 1.9181870963199    occ= 0
MO #51  energy= 1.87051990698465   | 1.82956136756444   | 1.91147844640488   occ= 0
MO #52  energy= 1.87525447669584   | 1.81974100215056   | 1.93076795124113   occ= 0
MO #53  energy= 1.87847676535642   | 1.8386638335395    | 1.91828969717334   occ= 0
MO #54  energy= 1.87847676535643   | 1.83866383353951   | 1.91828969717333   occ= 0
MO #55  energy= 2.21136499202126   | 2.19104190477874   | 2.23168807923635   occ= 0
MO #56  energy= 2.21212744007713   | 2.19171884322599   | 2.23253603694842   occ= 0
MO #57  energy= 2.21212744007713   | 2.19171884322599   | 2.23253603694842   occ= 0
MO #58  energy= 2.21367007539753   | 2.19263109909824   | 2.23470905169661   occ= 0
MO #59  energy= 2.21639290357418   | 2.19839566387023   | 2.23439014327813   occ= 0
MO #60  energy= 2.22005289615772   | 2.2021217995786    | 2.23798399270333   occ= 0
MO #61  energy= 2.22005289615772   | 2.2021217995786    | 2.23798399270333   occ= 0
MO #62  energy= 2.2272524439921    | 2.21166374819765   | 2.24284113683504   occ= 0
MO #63  energy= 2.22729615431905   | 2.21133959448936   | 2.24325271414874   occ= 0
MO #64  energy= 2.23650731451542   | 2.18727761253583   | 2.28573700256984   occ= 0
MO #65  energy= 3.23645384488306   | 3.14618821547965   | 3.32671951365382   occ= 0
MO #66  energy= 3.2423426634169    | 3.20760992330413   | 3.27707540352967   occ= 0
MO #67  energy= 3.24392780030798   | 3.15257799240527   | 3.33527766822878   occ= 0
MO #68  energy= 3.24392780030798   | 3.15257799240527   | 3.33527766822878   occ= 0
MO #69  energy= 3.26792959368814   | 3.17428049321032   | 3.36157881241579   occ= 0
MO #70  energy= 4.95537334144043   | 4.8882708782553    | 5.02247580462561   occ= 0
MO #71  energy= 4.99082874242383   | 4.93819360926952   | 5.04346387557814   occ= 0
MO #72  energy= 4.99082874242384   | 4.93819360926953   | 5.04346387557815   occ= 0
MO #73  energy= 5.4275024256277    | 5.31519987037314   | 5.53980498088225   occ= 0
MO #74  energy= 5.42991698321979   | 5.32453117239471   | 5.53530279404483   occ= 0
MO #75  energy= 5.42991698321979   | 5.32453117239473   | 5.53530279404485   occ= 0
MO #76  energy= 5.43426910213302   | 5.35029960366331   | 5.51823860060277   occ= 0
MO #77  energy= 5.44251098889964   | 5.32433829764555   | 5.56068368015372   occ= 0
MO #78  energy= 5.44994132703883   | 5.37006000176422   | 5.52982265231344   occ= 0
MO #79  energy= 5.44994132703884   | 5.37006000176424   | 5.52982265231344   occ= 0
MO #80  energy= 7.1474655978321    | 7.11926006465189   | 7.1756711310123    occ= 0
MO #81  energy= 7.14803833886183   | 7.11946691015072   | 7.17660976757295   occ= 0
MO #82  energy= 7.14803833886184   | 7.11946691015072   | 7.17660976757295   occ= 0
MO #83  energy= 7.14883226716227   | 7.11958679337715   | 7.17807774094739   occ= 0
MO #84  energy= 7.1573759529963    | 7.13324095303928   | 7.1815109529533    occ= 0
MO #85  energy= 7.16090006360958   | 7.13658771248913   | 7.18521241473003   occ= 0
MO #86  energy= 7.16090006360958   | 7.13658771248913   | 7.18521241473003   occ= 0
MO #87  energy= 7.16943242843156   | 7.14589742643959   | 7.19296743042352   occ= 0
MO #88  energy= 7.17029682641019   | 7.14761909383685   | 7.19297455898352   occ= 0
MO #89  energy= 7.18376409089845   | 7.1637797723957    | 7.20374840940121   occ= 0
MO #90  energy= 7.18376409089846   | 7.1637797723957    | 7.2037484094012    occ= 0
MO #91  energy= 7.27814560165054   | 7.22259348813164   | 7.33369771454271   occ= 0
MO #92  energy= 7.27982229526577   | 7.22379859405672   | 7.33584599615476   occ= 0
MO #93  energy= 7.27982229526577   | 7.22379859405672   | 7.33584599615476   occ= 0
MO #94  energy= 7.28309402966171   | 7.2245121060279    | 7.34167595323398   occ= 0
MO #95  energy= 7.29014298476436   | 7.24393368051722   | 7.33635228901148   occ= 0
MO #96  energy= 7.2983699732696    | 7.25235280710651   | 7.34438713911386   occ= 0
MO #97  energy= 7.29836997326961   | 7.25235280710651   | 7.34438713911386   occ= 0
MO #98  energy= 7.31524421537916   | 7.27687888587506   | 7.35360954488329   occ= 0
MO #99  energy= 7.31542357112612   | 7.27769863142725   | 7.35314850152896   occ= 0
MO #100 energy= 9.96076337741805   | 9.89425385381385   | 10.0272729003144   occ= 0
MO #101 energy= 10.2961013117645   | 10.222155865267    | 10.3700467569698   occ= 0
MO #102 energy= 10.302328549132    | 10.2259700702302   | 10.3786870285811   occ= 0
MO #103 energy= 10.302328549132    | 10.2259700702302   | 10.3786870285811   occ= 0
MO #104 energy= 10.3211306998437   | 10.2889682553887   | 10.3532931442986   occ= 0
MO #105 energy= 10.3296748416741   | 10.2515635282899   | 10.4077861562483   occ= 0
MO #106 energy= 15.3364381018719   | 15.2305040817747   | 15.4423721219691   occ= 0
MO #107 energy= 15.3407403118834   | 15.2364078878848   | 15.445072735882    occ= 0
MO #108 energy= 15.3407403118834   | 15.2364078878848   | 15.445072735882    occ= 0
MO #109 energy= 15.3535252335842   | 15.2419024035495   | 15.4651480636189   occ= 0
MO #110 energy= 15.3538642819269   | 15.2733930160747   | 15.4343355477792   occ= 0
MO #111 energy= 15.3753328322945   | 15.3035465422673   | 15.4471191223217   occ= 0
MO #112 energy= 15.3753328322945   | 15.3035465422674   | 15.4471191223217   occ= 0
MO #113 energy= 15.559968277072    | 15.4908042532114   | 15.6291323009326   occ= 0
MO #114 energy= 15.6027057287181   | 15.5487593154106   | 15.6566521420257   occ= 0
MO #115 energy= 15.6027057287181   | 15.5487593154106   | 15.6566521420257   occ= 0
MO #116 energy= 20.8033004573454   | 20.7243020039398   | 20.8822989105979   occ= 0
MO #117 energy= 20.8055799320874   | 20.7257836068041   | 20.8853762573451   occ= 0
MO #118 energy= 20.8055799320874   | 20.7257836068041   | 20.8853762573451   occ= 0
MO #119 energy= 20.8098234811921   | 20.7266423023087   | 20.8930046600815   occ= 0
MO #120 energy= 20.8213757466804   | 20.7556877376314   | 20.8870637557295   occ= 0
MO #121 energy= 20.832937663083    | 20.7677107809431   | 20.8981645453913   occ= 0
MO #122 energy= 20.8329376630831   | 20.7677107809431   | 20.8981645453913   occ= 0
MO #123 energy= 20.8576044119994   | 20.8030892826356   | 20.9121195413633   occ= 0
MO #124 energy= 20.8579751600158   | 20.8044572244883   | 20.9114930918033   occ= 0
MO #125 energy= 22.2373328055925   | 22.1819704203284   | 22.2926951908566   occ= 0
MO #126 energy= 22.2381099151993   | 22.1819651843654   | 22.2942546460333   occ= 0
MO #127 energy= 22.2381099151993   | 22.1819651843654   | 22.2942546460332   occ= 0
MO #128 energy= 22.2391352572922   | 22.1817288801164   | 22.296541634468    occ= 0
MO #129 energy= 22.2551743961369   | 22.2084705989944   | 22.3018781932793   occ= 0
MO #130 energy= 22.2608470561433   | 22.2139303139152   | 22.3077637983715   occ= 0
MO #131 energy= 22.2608470561434   | 22.2139303139152   | 22.3077637983715   occ= 0
MO #132 energy= 22.2750435045239   | 22.2297261590925   | 22.3203608499554   occ= 0
MO #133 energy= 22.2768098826112   | 22.2333749590312   | 22.320244806191    occ= 0
MO #134 energy= 22.2998297924247   | 22.2620822021823   | 22.3375773826672   occ= 0
MO #135 energy= 22.2998297924247   | 22.2620822021823   | 22.3375773826672   occ= 0
 ** Mulliken pop on meta-lowdin orthogonal AOs  **
 ** Mulliken pop  **
pop of  0Fe 3s        1.99996
pop of  0Fe 4s        0.95385
pop of  0Fe 5s        0.02700
pop of  0Fe 6s        0.00887
pop of  0Fe 7s        0.00012
pop of  0Fe 8s        0.00587
pop of  0Fe 9s        0.00397
pop of  0Fe 3px       1.99984
pop of  0Fe 3py       1.99984
pop of  0Fe 3pz       1.99980
pop of  0Fe 4px       0.00007
pop of  0Fe 4py       0.00007
pop of  0Fe 4pz       0.00014
pop of  0Fe 5px       0.00000
pop of  0Fe 5py       0.00000
pop of  0Fe 5pz       0.00001
pop of  0Fe 6px       0.00001
pop of  0Fe 6py       0.00001
pop of  0Fe 6pz       0.00002
pop of  0Fe 7px       0.00000
pop of  0Fe 7py       0.00000
pop of  0Fe 7pz       0.00000
pop of  0Fe 8px       0.00000
pop of  0Fe 8py       0.00000
pop of  0Fe 8pz       0.00000
pop of  0Fe 9px       0.00000
pop of  0Fe 9py       0.00000
pop of  0Fe 9pz       0.00000
pop of  0Fe 3dxy      1.99907
pop of  0Fe 3dyz      0.99654
pop of  0Fe 3dz^2     0.99623
pop of  0Fe 3dxz      0.99654
pop of  0Fe 3dx2-y2    0.99742
pop of  0Fe 4dxy      0.00032
pop of  0Fe 4dyz      0.00245
pop of  0Fe 4dz^2     0.00299
pop of  0Fe 4dxz      0.00245
pop of  0Fe 4dx2-y2    0.00176
pop of  0Fe 5dxy      0.00018
pop of  0Fe 5dyz      0.00039
pop of  0Fe 5dz^2     0.00044
pop of  0Fe 5dxz      0.00039
pop of  0Fe 5dx2-y2    0.00031
pop of  0Fe 6dxy      0.00005
pop of  0Fe 6dyz      0.00002
pop of  0Fe 6dz^2     0.00002
pop of  0Fe 6dxz      0.00002
pop of  0Fe 6dx2-y2    0.00002
pop of  0Fe 7dxy      0.00034
pop of  0Fe 7dyz      0.00054
pop of  0Fe 7dz^2     0.00061
pop of  0Fe 7dxz      0.00054
pop of  0Fe 7dx2-y2    0.00046
pop of  0Fe 8dxy      0.00003
pop of  0Fe 8dyz      0.00004
pop of  0Fe 8dz^2     0.00004
pop of  0Fe 8dxz      0.00004
pop of  0Fe 8dx2-y2    0.00003
pop of  0Fe 4fy^3     0.00002
pop of  0Fe 4fxyz     0.00000
pop of  0Fe 4fyz^2    0.00000
pop of  0Fe 4fz^3     0.00001
pop of  0Fe 4fxz^2    0.00000
pop of  0Fe 4fzx^2    0.00000
pop of  0Fe 4fx^3     0.00002
pop of  0Fe 5fy^3     0.00004
pop of  0Fe 5fxyz     0.00000
pop of  0Fe 5fyz^2    0.00000
pop of  0Fe 5fz^3     0.00002
pop of  0Fe 5fxz^2    0.00000
pop of  0Fe 5fzx^2    0.00000
pop of  0Fe 5fx^3     0.00004
pop of  0Fe 6fy^3     0.00002
pop of  0Fe 6fxyz     0.00000
pop of  0Fe 6fyz^2    0.00000
pop of  0Fe 6fz^3     0.00000
pop of  0Fe 6fxz^2    0.00000
pop of  0Fe 6fzx^2    0.00000
pop of  0Fe 6fx^3     0.00002
pop of  0Fe 7fy^3     0.00000
pop of  0Fe 7fxyz     0.00000
pop of  0Fe 7fyz^2    0.00000
pop of  0Fe 7fz^3     0.00000
pop of  0Fe 7fxz^2    0.00000
pop of  0Fe 7fzx^2    0.00000
pop of  0Fe 7fx^3     0.00000
pop of  0Fe 5g-4      0.00000
pop of  0Fe 5g-3      0.00000
pop of  0Fe 5g-2      0.00000
pop of  0Fe 5g-1      0.00000
pop of  0Fe 5g 0      0.00000
pop of  0Fe 5g 1      0.00000
pop of  0Fe 5g 2      0.00000
pop of  0Fe 5g 3      0.00000
pop of  0Fe 5g 4      0.00000
pop of  0Fe 6g-4      0.00000
pop of  0Fe 6g-3      0.00000
pop of  0Fe 6g-2      0.00000
pop of  0Fe 6g-1      0.00001
pop of  0Fe 6g 0      0.00001
pop of  0Fe 6g 1      0.00001
pop of  0Fe 6g 2      0.00000
pop of  0Fe 6g 3      0.00000
pop of  0Fe 6g 4      0.00000
pop of  0Fe 7g-4      0.00000
pop of  0Fe 7g-3      0.00000
pop of  0Fe 7g-2      0.00000
pop of  0Fe 7g-1      0.00001
pop of  0Fe 7g 0      0.00001
pop of  0Fe 7g 1      0.00001
pop of  0Fe 7g 2      0.00000
pop of  0Fe 7g 3      0.00000
pop of  0Fe 7g 4      0.00000
pop of  0Fe 6h-5      0.00000
pop of  0Fe 6h-4      0.00000
pop of  0Fe 6h-3      0.00000
pop of  0Fe 6h-2      0.00000
pop of  0Fe 6h-1      0.00000
pop of  0Fe 6h 0      0.00000
pop of  0Fe 6h 1      0.00000
pop of  0Fe 6h 2      0.00000
pop of  0Fe 6h 3      0.00000
pop of  0Fe 6h 4      0.00000
pop of  0Fe 6h 5      0.00000
pop of  0Fe 7h-5      0.00000
pop of  0Fe 7h-4      0.00000
pop of  0Fe 7h-3      0.00000
pop of  0Fe 7h-2      0.00000
pop of  0Fe 7h-1      0.00000
pop of  0Fe 7h 0      0.00000
pop of  0Fe 7h 1      0.00000
pop of  0Fe 7h 2      0.00000
pop of  0Fe 7h 3      0.00000
pop of  0Fe 7h 4      0.00000
pop of  0Fe 7h 5      0.00000
 ** Mulliken atomic charges  **
charge of  0Fe =      1.00000

******** <class 'pyscf.mcscf.mc1step.CASSCF'> flags ********
CAS (6e+1e, 6o), ncore = 4, nvir = 125
max_cycle_macro = 50
max_cycle_micro = 4
conv_tol = 1e-07
conv_tol_grad = None
orbital rotation max_stepsize = 0.02
augmented hessian ah_max_cycle = 30
augmented hessian ah_conv_tol = 1e-12
augmented hessian ah_linear dependence = 1e-14
augmented hessian ah_level shift = 0
augmented hessian ah_start_tol = 2.5
augmented hessian ah_start_cycle = 3
augmented hessian ah_grad_trust_region = 3
kf_trust_region = 3
kf_interval = 4
ci_response_space = 4
ci_grad_trust_region = 3
with_dep4 0
natorb = False
canonicalization = True
chkfile = ./scratch/169338/tmp1c3Yo2
max_memory 4000 MB (current use 432 MB)
internal_rotation = False

******** SHCI flags ********
executable             = /home/bamu3429/softwares/dice/Dice
mpiprefix              = mpirun -np 28
scratchDirectory       = ./scratch/169338
integralFile           = ./FCIDUMP
configFile             = ./input.dat
outputFile             = ./output.dat
maxIter                = 6
sweep_iter             = []
sweep_epsilon          = []
nPTiter                = 0
Stochastic             = True
fullrestart            = False
restart                = False
num_thrds              = 12
memory                 = None

CASCI E = -122.808876747114  S^2 = 8.7500000
Set conv_tol_grad to 0.000316228
macro iter 1 (1 JK  1 micro), CASSCF E = -122.808876747114  dE = 0  S^2 = 8.7500000
               |grad[o]|=2.07e-06  |grad[c]|= None  |ddm|=    0
1-step CASSCF converged in 1 macro (1 JK 1 micro) steps
CASSCF canonicalization
CASSCF energy = -122.808876747114


--------------------------------------------------
                 ICMPSPT CALCULATION              
--------------------------------------------------

Perturbation type: MRLCC
With fully internally contracted scheme
With third order correction

Preparing necessary RDMs
......production of RDMs took       0.72 sec
Reading binary 4RDM from DICE
......reading the RDM took          0.97 sec

(GOOD) Trace 4RDM:    840.0 =    7*    6*    5*    4
(GOOD) Trace 3RDM:    210.0 =    7*    6*    5
(GOOD) Trace 2RDM:     42.0 =    7*    6
(GOOD) Trace 1RDM:      7.0 =    7

Producing the integrals
......production of INT took    1619.45 sec

Energy_core =  -101.635111491
Energy      =  -122.808876747

WARNING: Have to use natural orbitals from CAASCF
         offdiagonal elements: 1.03407845512

Basic ingredients written to int/
......savings of INGREDIENTS took     601.34 sec

Second-order:
perturber CCVV --        -0.112702301
perturber CCAV --        -0.039211912
perturber ACVV --        -0.213845556
perturber CCAA --        -0.017749456
perturber AAVV --        -0.159796163
perturber CAAV --        -0.113423199
perturber AAAV --        -0.004834548
perturber AAAC --        -0.000000000
Total:                   -0.661563136

Third-order:              0.002355197

Total PT       --        -0.659207939

