 &FCI NORB=6 ,NELEC=11 ,MS2=1,
  ORBSYM=1,1,1,1,1,1,
  ISYM=1,
 &END
  1.005381090384e+00    1  1  1  1
  4.336481623110e-02    2  1  2  1
  9.186514579216e-01    2  2  1  1
  1.005381090384e+00    2  2  2  2
 -2.991031591599e-03    3  1  2  1
 -1.305566339885e-04    3  1  2  2
  2.871617075951e-02    3  1  3  1
  5.982063183206e-03    3  2  1  1
  6.527831699422e-05    3  2  2  1
  2.215644564088e-03    3  2  3  1
  3.729406677723e-02    3  2  3  2
  9.479487488648e-01    3  3  1  1
 -4.431289128179e-03    3  3  2  1
  9.307929568294e-01    3  3  2  2
  1.005381090384e+00    3  3  3  3
 -7.202629985730e-04    4  1  2  1
  2.298079371165e-03    4  1  2  2
 -5.382808843861e-03    4  1  3  1
  6.727669675956e-03    4  1  3  2
  1.294304952582e-02    4  1  3  3
  3.944292617163e-02    4  1  4  1
  1.440525997147e-03    4  2  1  1
 -1.149039685583e-03    4  2  2  1
  2.168556687495e-03    4  2  3  1
  5.169021253096e-03    4  2  3  2
  3.335240476090e-03    4  2  3  3
  3.331708060033e-03    4  2  4  1
  2.352294175773e-02    4  2  4  2
  1.076561768773e-02    4  3  1  1
 -8.896226363454e-03    4  3  2  1
 -1.033804250620e-02    4  3  2  2
 -6.471524762909e-03    4  3  3  1
 -1.667620238044e-03    4  3  3  2
  4.715741141313e-04    4  3  4  1
 -2.671604884097e-03    4  3  4  2
  3.990422080925e-02    4  3  4  3
  9.264952380406e-01    4  4  1  1
 -6.663416120069e-03    4  4  2  1
  9.583352068684e-01    4  4  2  2
 -9.431482282620e-04    4  4  3  1
  5.343209768197e-03    4  4  3  2
  9.255726487654e-01    4  4  3  3
  1.005381090384e+00    4  4  4  4
  9.952934866192e-04    5  1  2  1
  3.153853790468e-03    5  1  2  2
  9.626529334601e-04    5  1  3  1
  5.649900495120e-03    5  1  3  2
 -1.239092373652e-02    5  1  3  3
 -5.605153385315e-03    5  1  4  1
 -1.319245557398e-04    5  1  4  2
  1.316273461175e-03    5  1  4  3
  9.237069946048e-03    5  1  4  4
  2.997284850873e-02    5  1  5  1
 -1.990586973240e-03    5  2  1  1
 -1.576926895235e-03    5  2  2  1
  8.921442901207e-03    5  2  3  1
  1.150210117084e-04    5  2  3  2
  9.399583792702e-03    5  2  3  3
 -6.093955356502e-04    5  2  4  1
  3.508329884224e-03    5  2  4  2
 -1.238766499257e-02    5  2  4  3
 -7.408996819466e-03    5  2  4  4
 -5.547352624121e-03    5  2  5  1
  3.731493690490e-02    5  2  5  2
 -1.925305866920e-03    5  3  1  1
 -1.457134339633e-02    5  3  2  1
 -2.300420234154e-04    5  3  2  2
  6.195461868259e-03    5  3  3  1
 -4.699791896352e-03    5  3  3  2
 -7.765601279065e-03    5  3  4  1
 -2.699607411709e-04    5  3  4  2
  2.096823501091e-03    5  3  4  3
  2.155347890337e-03    5  3  4  4
 -5.368524311259e-04    5  3  5  1
  5.662636475697e-03    5  3  5  2
  3.558230332498e-02    5  3  5  3
  1.121030677063e-02    5  4  1  1
  7.413200913900e-04    5  4  2  1
 -7.016659768452e-03    5  4  2  2
  6.449327817890e-03    5  4  3  1
  1.265762573374e-02    5  4  3  2
 -4.193647002182e-03    5  4  3  3
 -4.618534973024e-03    5  4  4  1
  3.704498409733e-03    5  4  4  2
 -1.077673945169e-03    5  4  4  3
  7.620564448492e-03    5  4  5  1
  2.387883236618e-03    5  4  5  2
  2.137875907654e-04    5  4  5  3
  3.862667293236e-02    5  4  5  4
  9.454353933664e-01    5  5  1  1
  1.109470524825e-02    5  5  2  1
  9.307512165740e-01    5  5  2  2
  1.073704862250e-03    5  5  3  1
 -1.132527295139e-02    5  5  3  2
  9.342164837339e-01    5  5  3  3
 -1.524112889698e-02    5  5  4  1
 -4.775766473236e-03    5  5  4  2
 -4.275751815309e-04    5  5  4  3
  9.281277445192e-01    5  5  4  4
  1.005381090384e+00    5  5  5  5
  1.569600368500e-03    6  1  1  1
  3.037226164183e-04    6  1  2  1
 -1.481520896468e-03    6  1  2  2
 -4.922862674461e-05    6  1  3  1
  4.042203170211e-04    6  1  3  2
  4.294636783149e-04    6  1  3  3
 -2.404146474464e-05    6  1  4  1
  7.486277902414e-05    6  1  4  2
  6.322654859754e-04    6  1  4  3
 -1.022656101062e-03    6  1  4  4
  2.778352915620e-05    6  1  5  1
 -1.818597521573e-04    6  1  5  2
 -3.296588440584e-04    6  1  5  3
  7.751853156176e-04    6  1  5  4
  5.051129507150e-04    6  1  5  5
  7.157192450714e-03    6  1  6  1
  3.037226164184e-04    6  2  1  1
 -1.481520896468e-03    6  2  2  1
 -3.097989421245e-04    6  2  2  2
  4.042203170211e-04    6  2  3  1
  1.462531553089e-04    6  2  3  2
  6.298797615632e-04    6  2  3  3
  7.486277902414e-05    6  2  4  1
  1.982318406328e-04    6  2  4  2
  4.330394158516e-04    6  2  4  3
  7.443192104050e-05    6  2  4  4
 -1.818597521572e-04    6  2  5  1
  4.561805776636e-04    6  2  5  2
  1.021976469413e-03    6  2  5  3
  2.065730830691e-04    6  2  5  4
 -6.982353568971e-04    6  2  5  5
  7.157192450714e-03    6  2  6  2
 -4.922862674464e-05    6  3  1  1
  4.042203170211e-04    6  3  2  1
  1.462531553089e-04    6  3  2  2
  4.294636783151e-04    6  3  3  1
  6.298797615632e-04    6  3  3  2
  8.295770224428e-04    6  3  3  3
  6.322654859755e-04    6  3  4  1
  4.330394158517e-04    6  3  4  2
 -1.093344547621e-03    6  3  4  3
 -4.343638627615e-04    6  3  4  4
 -3.296588440584e-04    6  3  5  1
  1.021976469414e-03    6  3  5  2
 -3.080230798664e-04    6  3  5  3
  3.642378747906e-04    6  3  5  4
 -4.922376882456e-04    6  3  5  5
  7.157192450714e-03    6  3  6  3
 -2.404146474465e-05    6  4  1  1
  7.486277902413e-05    6  4  2  1
  1.982318406328e-04    6  4  2  2
  6.322654859755e-04    6  4  3  1
  4.330394158517e-04    6  4  3  2
 -1.093344547621e-03    6  4  3  3
 -1.022656101062e-03    6  4  4  1
  7.443192104043e-05    6  4  4  2
 -4.343638627615e-04    6  4  4  3
  5.325024426847e-04    6  4  4  4
  7.751853156176e-04    6  4  5  1
  2.065730830691e-04    6  4  5  2
  3.642378747906e-04    6  4  5  3
  1.017875085695e-03    6  4  5  4
  3.866517290478e-04    6  4  5  5
  7.157192450714e-03    6  4  6  4
  2.778352915619e-05    6  5  1  1
 -1.818597521572e-04    6  5  2  1
  4.561805776636e-04    6  5  2  2
 -3.296588440584e-04    6  5  3  1
  1.021976469414e-03    6  5  3  2
 -3.080230798665e-04    6  5  3  3
  7.751853156176e-04    6  5  4  1
  2.065730830691e-04    6  5  4  2
  3.642378747906e-04    6  5  4  3
  1.017875085695e-03    6  5  4  4
  5.051129507151e-04    6  5  5  1
 -6.982353568973e-04    6  5  5  2
 -4.922376882456e-04    6  5  5  3
  3.866517290479e-04    6  5  5  4
 -1.193816112649e-03    6  5  5  5
  7.157192450714e-03    6  5  6  5
  3.649015818600e-01    6  6  1  1
  3.649015818600e-01    6  6  2  2
  3.649015818600e-01    6  6  3  3
  3.649015818600e-01    6  6  4  4
  3.649015818600e-01    6  6  5  5
  2.793830308102e-01    6  6  6  6
 -9.175066734159e+00    1  1  0  0
 -9.175066734159e+00    2  2  0  0
 -9.175066734159e+00    3  3  0  0
 -9.175066734159e+00    4  4  0  0
 -9.175066734159e+00    5  5  0  0
 -3.857214537585e+00    6  6  0  0
   -146.274479835223   0  0  0  0
