 &FCI NORB=3 ,NELEC=3 ,MS2=3,
  ORBSYM=1,1,1,
  ISYM=1,
 &END
  9.149246022052e-01    1  1  1  1
  6.946919936449e-11    2  1  1  1
  4.705440460911e-02    2  1  2  1
  8.208157914910e-01    2  2  1  1
  6.947095353981e-11    2  2  2  1
  9.149245992132e-01    2  2  2  2
  1.417445155366e-11    3  1  1  1
 -1.058198500739e-12    3  1  2  1
  1.245940185730e-11    3  1  2  2
  4.705440430980e-02    3  1  3  1
 -1.406376057920e-11    3  2  1  1
 -1.617967729722e-11    3  2  2  2
  4.396683219821e-12    3  2  3  1
  4.705440421542e-02    3  2  3  2
  8.208157873003e-01    3  3  1  1
  6.067656677463e-11    3  3  2  1
  8.208157859930e-01    3  3  2  2
  1.417352478996e-11    3  3  3  1
 -1.617973336066e-11    3  3  3  2
  9.149245896346e-01    3  3  3  3
 -2.879815616775e+00    1  1  0  0
 -1.122124416590e-10    2  1  0  0
 -2.879815614355e+00    2  2  0  0
 -2.319713752578e-11    3  1  0  0
  2.600255274671e-11    3  2  0  0
 -2.879815606592e+00    3  3  0  0
     -8.891307052858   0  0  0  0
