 &FCI NORB=9 ,NELEC=11 ,MS2=5,
  ORBSYM=1,1,1,1,1,1,1,1,1,
  ISYM=1,
 &END
  6.177766403211e-01    1  1  1  1
  3.034543827059e-02    2  1  2  1
  5.817909377451e-01    2  2  1  1
  6.717653910114e-01    2  2  2  2
  3.034543827059e-02    3  1  3  1
 -1.538665228696e-10    3  2  2  2
  3.107717797023e-02    3  2  3  2
  5.817909377451e-01    3  3  1  1
  6.096110357660e-01    3  3  2  2
  1.538671290669e-10    3  3  3  2
  6.717653910114e-01    3  3  3  3
  3.892246930207e-06    4  1  2  2
 -5.762762210134e-04    4  1  3  2
 -3.892246929682e-06    4  1  3  3
  4.994990572044e-03    4  1  4  1
  7.025348206623e-06    4  2  2  1
 -1.103431228667e-03    4  2  3  1
  2.409552866340e-03    4  2  4  2
 -1.103431228667e-03    4  3  2  1
 -7.025348206393e-06    4  3  3  1
  2.409552866340e-03    4  3  4  3
  3.631485920479e-01    4  4  1  1
  3.230182506491e-01    4  4  2  2
  3.230182506491e-01    4  4  3  3
  8.556397847586e-01    4  4  4  4
 -5.762766807050e-04    5  1  2  2
 -3.893001617525e-06    5  1  3  2
  5.762766807052e-04    5  1  3  3
  5.404132391431e-11    5  1  4  1
  4.994990620145e-03    5  1  5  1
 -1.103431691367e-03    5  2  2  1
 -7.026092761703e-06    5  2  3  1
  1.311037544565e-11    5  2  4  2
  1.155128758792e-03    5  2  4  3
  2.409552902781e-03    5  2  5  2
 -7.026092761625e-06    5  3  2  1
  1.103431691367e-03    5  3  3  1
 -1.155128758792e-03    5  3  4  2
  1.311040152276e-11    5  3  4  3
  2.409552902781e-03    5  3  5  3
 -1.853381656421e-09    5  4  1  1
 -1.146728033346e-09    5  4  2  2
 -1.146727954199e-09    5  4  3  3
 -1.301182811380e-08    5  4  4  4
  1.841764283444e-02    5  4  5  4
  3.631485889825e-01    5  5  1  1
  3.230182489324e-01    5  5  2  2
  3.230182489325e-01    5  5  3  3
  8.188044776231e-01    5  5  4  4
 -1.301182770117e-08    5  5  5  4
  8.556397418254e-01    5  5  5  5
  1.008302869798e-02    6  1  1  1
  1.942509761272e-02    6  1  2  2
  1.942509761272e-02    6  1  3  3
 -1.099482174902e-01    6  1  4  4
  2.474040567149e-09    6  1  5  4
 -1.099482132825e-01    6  1  5  5
  3.407544921639e-02    6  1  6  1
  3.621177960297e-03    6  2  2  1
  2.975757163217e-07    6  2  3  1
  5.942409425426e-06    6  2  4  2
 -6.844634610042e-04    6  2  4  3
 -6.844636229411e-04    6  2  5  2
 -5.942609564198e-06    6  2  5  3
  3.181877241130e-03    6  2  6  2
 -2.975757164067e-07    6  3  2  1
  3.621177960297e-03    6  3  3  1
 -6.844634610042e-04    6  3  4  2
 -5.942409425431e-06    6  3  4  3
 -5.942609564262e-06    6  3  5  2
  6.844636229412e-04    6  3  5  3
  3.181877241130e-03    6  3  6  3
  1.859681816938e-05    6  4  2  2
 -2.334004365723e-03    6  4  3  2
 -1.859681816947e-05    6  4  3  3
 -8.575162002662e-03    6  4  4  1
 -5.666221724106e-08    6  4  5  1
  3.327882694433e-02    6  4  6  4
 -2.334004351365e-03    6  5  2  2
 -1.859666961244e-05    6  5  3  2
  2.334004351365e-03    6  5  3  3
  5.788550656806e-08    6  5  4  1
 -8.575161242963e-03    6  5  5  1
 -3.247373531006e-09    6  5  6  4
  3.327882385858e-02    6  5  6  5
  3.650978328585e-01    6  6  1  1
  3.242912645872e-01    6  6  2  2
  3.242912645872e-01    6  6  3  3
  6.986710059126e-01    6  6  4  4
 -9.669434978406e-09    6  6  5  4
  6.986709902192e-01    6  6  5  5
 -1.045967755192e-01    6  6  6  1
  6.831591397967e-01    6  6  6  6
 -2.101466863286e-03    7  1  2  1
 -3.689903195301e-03    7  1  3  1
 -1.079888155390e-03    7  1  4  2
 -6.272331068015e-04    7  1  4  3
 -6.272330600369e-04    7  1  5  2
  1.079888164430e-03    7  1  5  3
 -4.542179282520e-04    7  1  6  2
 -7.962339303385e-04    7  1  6  3
  6.330463279469e-03    7  1  7  1
 -2.290071162301e-02    7  2  1  1
 -3.714421536509e-02    7  2  2  2
 -5.420797338139e-03    7  2  3  2
 -3.096846390069e-02    7  2  3  3
  6.456905808949e-04    7  2  4  1
  4.829735270802e-02    7  2  4  4
  3.741478753636e-04    7  2  5  1
 -9.653096622310e-10    7  2  5  4
  4.829735111502e-02    7  2  5  5
 -1.453594648414e-02    7  2  6  1
 -2.561158110569e-03    7  2  6  4
 -1.484848313661e-03    7  2  6  5
  4.140074012641e-02    7  2  6  6
  1.254611944319e-02    7  2  7  2
 -4.021795367974e-02    7  3  1  1
 -5.438140675752e-02    7  3  2  2
 -3.087875720310e-03    7  3  3  2
 -6.522300134873e-02    7  3  3  3
  3.741478674142e-04    7  3  4  1
  8.478316991557e-02    7  3  4  4
 -6.456905764621e-04    7  3  5  1
 -1.663139293254e-09    7  3  5  4
  8.478316701588e-02    7  3  5  5
 -2.551968808518e-02    7  3  6  1
 -1.484849368117e-03    7  3  6  4
  2.561158159265e-03    7  3  6  5
  7.267688615276e-02    7  3  6  6
  1.666744896371e-02    7  3  7  2
  3.231708568549e-02    7  3  7  3
 -1.937937112450e-03    7  4  2  1
 -1.123998120384e-03    7  4  3  1
  3.141275652732e-03    7  4  4  2
  5.513855224834e-03    7  4  4  3
  2.533740713940e-03    7  4  5  2
 -1.443464431629e-03    7  4  5  3
  9.335249320645e-04    7  4  6  2
  5.413644057185e-04    7  4  6  3
 -1.886812442267e-03    7  4  7  1
  3.231131253081e-02    7  4  7  4
 -1.123998044229e-03    7  5  2  1
  1.937937127071e-03    7  5  3  1
 -2.533740945979e-03    7  5  4  2
  1.443464025629e-03    7  5  4  3
  3.141275502110e-03    7  5  5  2
  5.513854917063e-03    7  5  5  3
  5.413646605242e-04    7  5  6  2
 -9.335249023549e-04    7  5  6  3
  1.099769254831e-03    7  5  7  1
 -7.088581811472e-10    7  5  7  4
  3.231131123114e-02    7  5  7  5
 -1.394652824226e-03    7  6  2  1
 -2.448591017151e-03    7  6  3  1
  1.298437219128e-03    7  6  4  2
  7.523481222144e-04    7  6  4  3
  7.523483674149e-04    7  6  5  2
 -1.298437205887e-03    7  6  5  3
  1.520298661122e-03    7  6  6  2
  2.669454032239e-03    7  6  6  3
 -3.581326889280e-03    7  6  7  1
  5.974261465410e-03    7  6  7  4
 -3.480846115723e-03    7  6  7  5
  1.991946404382e-02    7  6  7  6
  3.884161247606e-01    7  7  1  1
  3.463596582649e-01    7  7  2  2
  3.774451259638e-03    7  7  3  2
  3.508379065887e-01    7  7  3  3
  4.323203873148e-03    7  7  4  1
  7.712319745814e-01    7  7  4  4
 -2.518463267049e-03    7  7  5  1
 -1.048645496495e-08    7  7  5  4
  7.712319565266e-01    7  7  5  5
 -1.101960851979e-01    7  7  6  1
 -1.328546349209e-02    7  7  6  4
  7.740255560852e-03    7  7  6  5
  7.062780837844e-01    7  7  6  6
  4.945077386101e-02    7  7  7  2
  8.680645573987e-02    7  7  7  3
  8.183246563871e-01    7  7  7  7
 -3.689903195301e-03    8  1  2  1
  2.101466863285e-03    8  1  3  1
  6.272331068013e-04    8  1  4  2
 -1.079888155390e-03    8  1  4  3
 -1.079888164430e-03    8  1  5  2
 -6.272330600371e-04    8  1  5  3
 -7.962339303385e-04    8  1  6  2
  4.542179282520e-04    8  1  6  3
 -1.099769273673e-03    8  1  7  4
 -1.886812449256e-03    8  1  7  5
 -1.496665462424e-07    8  1  7  6
  6.330463279469e-03    8  1  8  1
 -4.021795367974e-02    8  2  1  1
 -6.522300134872e-02    8  2  2  2
  3.087875720310e-03    8  2  3  2
 -5.438140675751e-02    8  2  3  3
 -3.741478674149e-04    8  2  4  1
  8.478316991557e-02    8  2  4  4
  6.456905764624e-04    8  2  5  1
 -1.663139400064e-09    8  2  5  4
  8.478316701588e-02    8  2  5  5
 -2.551968808518e-02    8  2  6  1
  1.484849368117e-03    8  2  6  4
 -2.561158159265e-03    8  2  6  5
  7.267688615276e-02    8  2  6  6
  1.666744866729e-02    8  2  7  2
  2.621090458884e-02    8  2  7  3
  7.716053850473e-02    8  2  7  7
  3.231708568549e-02    8  2  8  2
  2.290071162301e-02    8  3  1  1
  3.096846390069e-02    8  3  2  2
 -5.420797338139e-03    8  3  3  2
  3.714421536509e-02    8  3  3  3
  6.456905808953e-04    8  3  4  1
 -4.829735270802e-02    8  3  4  4
  3.741478753635e-04    8  3  5  1
  9.653096513944e-10    8  3  5  4
 -4.829735111501e-02    8  3  5  5
  1.453594648414e-02    8  3  6  1
 -2.561158110569e-03    8  3  6  4
 -1.484848313661e-03    8  3  6  5
 -4.140074012640e-02    8  3  6  6
 -6.439938670511e-03    8  3  7  2
 -1.666744866729e-02    8  3  7  3
 -4.395528610386e-02    8  3  7  7
 -1.666744896371e-02    8  3  8  2
  1.254611944319e-02    8  3  8  3
  1.123998120384e-03    8  4  2  1
 -1.937937112450e-03    8  4  3  1
  5.513855224834e-03    8  4  4  2
 -3.141275652732e-03    8  4  4  3
 -1.443464431629e-03    8  4  5  2
 -2.533740713940e-03    8  4  5  3
 -5.413644057186e-04    8  4  6  2
  9.335249320645e-04    8  4  6  3
 -1.099769273673e-03    8  4  7  1
 -1.443771806512e-02    8  4  7  5
  3.480846519298e-03    8  4  7  6
  1.886812442267e-03    8  4  8  1
  3.231131253081e-02    8  4  8  4
 -1.937937127070e-03    8  5  2  1
 -1.123998044229e-03    8  5  3  1
  1.443464025629e-03    8  5  4  2
  2.533740945979e-03    8  5  4  3
  5.513854917063e-03    8  5  5  2
 -3.141275502110e-03    8  5  5  3
  9.335249023549e-04    8  5  6  2
  5.413646605241e-04    8  5  6  3
 -1.886812449256e-03    8  5  7  1
  1.443771806512e-02    8  5  7  4
  5.974261888106e-03    8  5  7  6
 -1.099769254831e-03    8  5  8  1
 -7.088579908027e-10    8  5  8  4
  3.231131123114e-02    8  5  8  5
 -2.448591017151e-03    8  6  2  1
  1.394652824226e-03    8  6  3  1
 -7.523481222145e-04    8  6  4  2
  1.298437219128e-03    8  6  4  3
  1.298437205887e-03    8  6  5  2
  7.523483674149e-04    8  6  5  3
  2.669454032239e-03    8  6  6  2
 -1.520298661122e-03    8  6  6  3
  1.496665462526e-07    8  6  7  1
  3.480846519298e-03    8  6  7  4
  5.974261888106e-03    8  6  7  5
 -3.581326889281e-03    8  6  8  1
 -5.974261465411e-03    8  6  8  4
  3.480846115723e-03    8  6  8  5
  1.991946404382e-02    8  6  8  6
  3.774450868350e-03    8  7  2  2
  2.239123944647e-03    8  7  3  2
 -3.774450868349e-03    8  7  3  3
  2.518463029557e-03    8  7  4  1
  4.323203423507e-03    8  7  5  1
 -7.740253356497e-03    8  7  6  4
 -1.328546013351e-02    8  7  6  5
  4.822957649611e-03    8  7  7  2
 -2.747743332082e-03    8  7  7  3
 -1.702633588428e-11    8  7  7  7
  2.747743332082e-03    8  7  8  2
  4.822957649611e-03    8  7  8  3
  3.138828463710e-02    8  7  8  7
  3.884161247606e-01    8  8  1  1
  3.508379065887e-01    8  8  2  2
 -3.774451259635e-03    8  8  3  2
  3.463596582649e-01    8  8  3  3
 -4.323203873151e-03    8  8  4  1
  7.712319745814e-01    8  8  4  4
  2.518463267050e-03    8  8  5  1
 -1.048645540839e-08    8  8  5  4
  7.712319565266e-01    8  8  5  5
 -1.101960851979e-01    8  8  6  1
  1.328546349209e-02    8  8  6  4
 -7.740255560851e-03    8  8  6  5
  7.062780837844e-01    8  8  6  6
  4.395528610386e-02    8  8  7  2
  7.716053850474e-02    8  8  7  3
  7.555480789936e-01    8  8  7  7
  8.680645573986e-02    8  8  8  2
 -4.945077386100e-02    8  8  8  3
  1.702602606073e-11    8  8  8  7
  8.183246563871e-01    8  8  8  8
  1.695107886513e-01    9  1  1  1
  1.677916991193e-01    9  1  2  2
  1.677916991193e-01    9  1  3  3
 -6.416027349797e-02    9  1  4  4
  1.332647324416e-09    9  1  5  4
 -6.416027118966e-02    9  1  5  5
  3.563783138913e-02    9  1  6  1
 -5.092993105031e-02    9  1  6  6
 -2.518752361479e-02    9  1  7  2
 -4.422632713028e-02    9  1  7  3
 -5.142051282010e-02    9  1  7  7
 -4.422632713028e-02    9  1  8  2
  2.518752361479e-02    9  1  8  3
 -5.142051282010e-02    9  1  8  8
  1.151086170549e-01    9  1  9  1
  1.244225655644e-02    9  2  2  1
 -8.471672634238e-08    9  2  3  1
  4.325441058127e-06    9  2  4  2
 -4.045256023938e-04    9  2  4  3
 -4.045257735277e-04    9  2  5  2
 -4.325739098620e-06    9  2  5  3
  2.619008137247e-03    9  2  6  2
  2.824732608228e-07    9  2  6  3
 -1.303250776258e-03    9  2  7  1
  1.982865452412e-04    9  2  7  4
  1.145061594511e-04    9  2  7  5
  1.555358802139e-04    9  2  7  6
 -2.287447772190e-03    9  2  8  1
 -1.145057947628e-04    9  2  8  4
  1.982865416712e-04    9  2  8  5
  2.723635054414e-04    9  2  8  6
  8.629095638496e-03    9  2  9  2
  8.471672636450e-08    9  3  2  1
  1.244225655644e-02    9  3  3  1
 -4.045256023938e-04    9  3  4  2
 -4.325441058193e-06    9  3  4  3
 -4.325739098585e-06    9  3  5  2
  4.045257735278e-04    9  3  5  3
 -2.824732606837e-07    9  3  6  2
  2.619008137247e-03    9  3  6  3
 -2.287447772190e-03    9  3  7  1
  1.145057947628e-04    9  3  7  4
 -1.982865416712e-04    9  3  7  5
  2.723635054413e-04    9  3  7  6
  1.303250776257e-03    9  3  8  1
  1.982865452412e-04    9  3  8  4
  1.145061594511e-04    9  3  8  5
 -1.555358802139e-04    9  3  8  6
  8.629095638496e-03    9  3  9  3
 -3.791637066887e-07    9  4  2  2
  1.140611348103e-04    9  4  3  2
  3.791637081023e-07    9  4  3  3
 -6.083556617454e-03    9  4  4  1
  1.529005194305e-08    9  4  5  1
  8.183808543616e-03    9  4  6  4
 -1.002600302186e-07    9  4  6  5
 -7.647160317885e-04    9  4  7  2
 -4.436734056770e-04    9  4  7  3
 -3.861131775925e-03    9  4  7  7
  4.436734056774e-04    9  4  8  2
 -7.647160317887e-04    9  4  8  3
 -2.249175185533e-03    9  4  8  7
  3.861131775929e-03    9  4  8  8
  8.969605449973e-03    9  4  9  4
  1.140612261775e-04    9  5  2  2
  3.793072968453e-07    9  5  3  2
 -1.140612261784e-04    9  5  3  3
 -1.408921516085e-08    9  5  4  1
 -6.083555951317e-03    9  5  5  1
  9.329906443356e-08    9  5  6  4
  8.183804474855e-03    9  5  6  5
 -4.436723211160e-04    9  5  7  2
  7.647160422802e-04    9  5  7  3
  2.249177621986e-03    9  5  7  7
 -7.647160422806e-04    9  5  8  2
 -4.436723211158e-04    9  5  8  3
 -3.861127619675e-03    9  5  8  7
 -2.249177621989e-03    9  5  8  8
 -9.637396759892e-10    9  5  9  4
  8.969604435257e-03    9  5  9  5
  7.553413097931e-02    9  6  1  1
  6.273512062560e-02    9  6  2  2
  6.273512062560e-02    9  6  3  3
  1.344144252230e-01    9  6  4  4
 -4.350612567456e-09    9  6  5  4
  1.344144184483e-01    9  6  5  5
 -3.066195541681e-02    9  6  6  1
  1.333538629093e-01    9  6  6  6
  7.738244982651e-03    9  6  7  2
  1.357891109702e-02    9  6  7  3
  1.443023381341e-01    9  6  7  7
  1.357891109702e-02    9  6  8  2
 -7.738244982650e-03    9  6  8  3
  1.443023381341e-01    9  6  8  8
  6.874399233087e-03    9  6  9  1
  5.531776100948e-02    9  6  9  6
 -2.103732389343e-03    9  7  2  1
 -3.693904470747e-03    9  7  3  1
  3.902901556412e-04    9  7  4  2
  2.257955988379e-04    9  7  4  3
  2.257958845542e-04    9  7  5  2
 -3.902901421864e-04    9  7  5  3
  5.234646999068e-04    9  7  6  2
  9.184790176268e-04    9  7  6  3
 -4.131094667568e-03    9  7  7  1
  4.276517901131e-03    9  7  7  4
 -2.491920078581e-03    9  7  7  5
  4.834313248625e-03    9  7  7  6
 -7.598419023714e-08    9  7  8  1
  2.491920736020e-03    9  7  8  4
  4.276518966036e-03    9  7  8  5
  5.403971248494e-08    9  7  8  6
 -3.532657345111e-04    9  7  9  2
 -6.195766679830e-04    9  7  9  3
  1.089116655206e-02    9  7  9  7
 -3.693904470747e-03    9  8  2  1
  2.103732389342e-03    9  8  3  1
 -2.257955988378e-04    9  8  4  2
  3.902901556412e-04    9  8  4  3
  3.902901421864e-04    9  8  5  2
  2.257958845542e-04    9  8  5  3
  9.184790176269e-04    9  8  6  2
 -5.234646999068e-04    9  8  6  3
  7.598419027484e-08    9  8  7  1
  2.491920736020e-03    9  8  7  4
  4.276518966036e-03    9  8  7  5
 -5.403971251258e-08    9  8  7  6
 -4.131094667568e-03    9  8  8  1
 -4.276517901131e-03    9  8  8  4
  2.491920078580e-03    9  8  8  5
  4.834313248625e-03    9  8  8  6
 -6.195766679831e-04    9  8  9  2
  3.532657345112e-04    9  8  9  3
  1.089116655206e-02    9  8  9  8
  3.511659494322e-01    9  9  1  1
  3.235237599443e-01    9  9  2  2
  3.235237599443e-01    9  9  3  3
  4.038176952218e-01    9  9  4  4
 -2.833286769012e-09    9  9  5  4
  4.038176904292e-01    9  9  5  5
 -2.637085444190e-02    9  9  6  1
  3.924880964183e-01    9  9  6  6
  8.822580724200e-03    9  9  7  2
  1.548814410679e-02    9  9  7  3
  4.116236649585e-01    9  9  7  7
  1.548814410679e-02    9  9  8  2
 -8.822580724199e-03    9  9  8  3
  4.116236649585e-01    9  9  8  8
  6.703217818560e-03    9  9  9  1
  4.942496070100e-02    9  9  9  6
  3.366217015282e-01    9  9  9  9
 -4.999138485282e+00    1  1  0  0
 -4.901934632957e+00    2  2  0  0
 -4.901934632957e+00    3  3  0  0
 -5.588158426677e+00    4  4  0  0
  4.862429271306e-08    5  4  0  0
 -5.588158346431e+00    5  5  0  0
  4.823249445269e-01    6  1  0  0
 -5.187795268573e+00    6  6  0  0
 -1.057232297003e-01    7  2  0  0
 -1.855217174398e-01    7  3  0  0
 -5.582989228917e+00    7  7  0  0
 -1.855217174398e-01    8  2  0  0
  1.057232297003e-01    8  3  0  0
 -5.582989228917e+00    8  8  0  0
 -4.881249367868e-01    9  1  0  0
 -8.668259256638e-01    9  6  0  0
 -3.739158875152e+00    9  9  0  0
    -88.242081802915   0  0  0  0
