#INFO: **** input file is /projects/bamu3429/BENCHMARK/fresh_atoms/MRPT/vtz/monoxides/MnO/mrpt.py ****
import json
from pyscf import gto,scf,mcscf, fci, lo, ci, cc
from pyscf.scf import ROHF, UHF,ROKS
import numpy as np
import pandas as pd

# THIS IS WERE IT STARTS ====================================

df=json.load(open("../../../trail.json"))

spins={'ScO':1, 'TiO':2, 'VO':3, 'CrO':4, 'MnO':5, 'FeO':4, 'CuO':1}

nd={'Sc':(1,0), 'Ti':(2,0), 'V':(3,0), 'Cr':(5,0), 'Mn':(5,0), 'Fe':(5,1), 'Cu':(5,4)}

cas={'Sc':3, 'Ti':4, 'V':5, 'Cr':6, 'Mn':7, 'Fe':8, 'Cu':11}

re={'ScO':1.668, 'TiO':1.623, 'VO':1.591, 'CrO':1.621, 'MnO':1.648, 'FeO':1.616, 'CuO':1.725}

datacsv={}
for nm in ['basis','charge','method','molecule','pseudopotential',
           'totalenergy','totalenergy-stocherr','totalenergy-syserr']:
  datacsv[nm]=[]

basis='vtz'
element='Mn'

mol=gto.Mole()
mol.ecp={}
mol.basis={}
for el in [element,'O']:
  mol.ecp[el]=gto.basis.parse_ecp(df[el]['ecp'])
  mol.basis[el]=gto.basis.parse(df[el][basis])
mol.charge=0
mol.spin=spins[element+'O']
mol.build(atom="%s 0. 0. 0.; O 0. 0. %g"%(element,re[element+'O']),verbose=4)

m=ROHF(mol)
m.level_shift=1000.0
dm=m.from_chk("../../../../HF/monoxides/"+element+basis+"0.chk")
hf=m.kernel(dm)
m.analyze()

from pyscf.shciscf import shci
mc = shci.SHCISCF(m, 9, 4+cas[element])
#mc.fcisolver.conv_tol = 1e-14
mc.fcisolver.mpiprefix="srun -n20"
mc.fcisolver.num_thrds=12
mc.verbose = 4
cas=mc.kernel()[0]
 
from pyscf.icmpspt import icmpspt
pt=icmpspt.icmpspt(mc,rdmM=500, PTM=1000,\
                          pttype="MRLCC",\
                          third_order=True,\
                          fully_ic=True,\
                          do_dm4=True)

datacsv['basis'].append(basis)
datacsv['charge'].append(0)
datacsv['method'].append('MRPT')
datacsv['molecule'].append(element)
datacsv['pseudopotential'].append('trail')
datacsv['totalenergy'].append(cas+pt)
datacsv['totalenergy-stocherr'].append(0.0)
datacsv['totalenergy-syserr'].append(0.0)
pd.DataFrame(datacsv).to_csv(element+".csv",index=False)

#INFO: ******************** input file end ********************


System: ('Linux', 'bnode0302.rc.int.colorado.edu', '3.10.0-514.41.1.el7.x86_64', '#1 SMP Wed Jan 17 10:26:16 EST 2018', 'x86_64', 'x86_64')  Threads 28
Python 2.7.11 (default, Mar 22 2016, 01:42:54) 
[GCC Intel(R) C++ gcc 4.8 mode]
numpy 1.11.1  scipy 0.17.1
Date: Wed Apr 18 18:03:00 2018
PySCF version 1.4.6
PySCF path  /projects/bamu3429/softwares/pyscf_uptodate/pyscf
GIT ORIG_HEAD f3591ef22170896a4cdc2aadaa6f5da388ffcadb
GIT HEAD      ref: refs/heads/master
GIT master branch  1847583fb1d2472321833d3c71c8b7008e5fabf5

[INPUT] VERBOSE 4
[INPUT] num atoms = 2
[INPUT] num electrons = 21
[INPUT] charge = 0
[INPUT] spin (= nelec alpha-beta = 2S) = 5
[INPUT] symmetry False subgroup None
[INPUT]  1 Mn     0.000000000000   0.000000000000   0.000000000000 AA    0.000000000000   0.000000000000   0.000000000000 Bohr
[INPUT]  2 O      0.000000000000   0.000000000000   1.648000000000 AA    0.000000000000   0.000000000000   3.114268653283 Bohr
[INPUT] ---------------- BASIS SET ---------------- 
[INPUT] l, kappa, [nprim/nctr], expnt,             c_1 c_2 ...
[INPUT] Mn
[INPUT] 0    0    [12   /1   ]  41.19094709       0.0124
                                21.94503151       -0.141461
                                12.89081507       0.669584
                                8.14876869        -1.015431
                                3.94904809        0.149151
                                1.91298055        0.350677
                                1.10736282        0.627006
                                0.4793266         0.235349
                                0.22675293        -0.024214
                                0.10639652        0.017357
                                0.05000494        -0.005272
                                0.0234982         0.002181
[INPUT] 0    0    [12   /1   ]  41.19094709       -0.002036
                                21.94503151       0.02709
                                12.89081507       -0.142056
                                8.14876869        0.229945
                                3.94904809        -0.035538
                                1.91298055        -0.085336
                                1.10736282        -0.24355
                                0.4793266         -0.201798
                                0.22675293        0.098761
                                0.10639652        0.439512
                                0.05000494        0.524416
                                0.0234982         0.13192
[INPUT] 0    0    [12   /1   ]  41.19094709       -0.004646
                                21.94503151       0.0905
                                12.89081507       -0.585022
                                8.14876869        1.111867
                                3.94904809        -0.363063
                                1.91298055        -1.33458
                                1.10736282        0.12279
                                0.4793266         0.708339
                                0.22675293        0.760146
                                0.10639652        0.035304
                                0.05000494        -0.576692
                                0.0234982         -0.237352
[INPUT] 0    0    [12   /1   ]  41.19094709       -0.002383
                                21.94503151       0.092523
                                12.89081507       -0.733494
                                8.14876869        1.604539
                                3.94904809        -0.989623
                                1.91298055        -2.287095
                                1.10736282        2.091286
                                0.4793266         1.469902
                                0.22675293        -1.522953
                                0.10639652        -0.860672
                                0.05000494        0.655242
                                0.0234982         0.514686
[INPUT] 0    0    [1    /1   ]  0.0234982            1
[INPUT] 0    0    [1    /1   ]  0.01104221           1
[INPUT] 1    0    [12   /1   ]  60.1913049        0.000757
                                31.1792672        -0.006538
                                16.24276866       0.042902
                                8.80021485        -0.164602
                                5.33575038        0.099387
                                3.0325056         0.217723
                                1.63861968        0.443669
                                0.80258711        0.32785
                                0.40627833        0.098641
                                0.17382998        0.011768
                                0.07306386        -0.000703
                                0.03071005        0.000403
[INPUT] 1    0    [12   /1   ]  60.1913049        -0.000118
                                31.1792672        0.001208
                                16.24276866       -0.009122
                                8.80021485        0.038924
                                5.33575038        -0.027473
                                3.0325056         -0.058215
                                1.63861968        -0.124371
                                0.80258711        -0.107355
                                0.40627833        0.040741
                                0.17382998        0.350952
                                0.07306386        0.523294
                                0.03071005        0.234255
[INPUT] 1    0    [12   /1   ]  60.1913049        -0.000242
                                31.1792672        -0.00184
                                16.24276866       0.036267
                                8.80021485        -0.233302
                                5.33575038        0.180046
                                3.0325056         0.831949
                                1.63861968        0.087927
                                0.80258711        -0.875277
                                0.40627833        -0.420967
                                0.17382998        0.588099
                                0.07306386        0.409206
                                0.03071005        0.007901
[INPUT] 1    0    [12   /1   ]  60.1913049        -0.000706
                                31.1792672        -0.000652
                                16.24276866       0.057679
                                8.80021485        -0.540394
                                5.33575038        1.073974
                                3.0325056         0.867896
                                1.63861968        -1.570127
                                0.80258711        -0.63828
                                0.40627833        1.540496
                                0.17382998        -0.071965
                                0.07306386        -0.646393
                                0.03071005        -0.005855
[INPUT] 1    0    [1    /1   ]  0.03071005           1
[INPUT] 1    0    [1    /1   ]  0.01290798           1
[INPUT] 2    0    [10   /1   ]  52.56900844       0.000307
                                23.81654224       -0.007961
                                11.32693504       0.114253
                                4.99176622        0.164228
                                2.46839125        0.269996
                                1.15974738        0.320627
                                0.53124091        0.273188
                                0.24220121        0.161357
                                0.11248934        0.058244
                                0.05201371        0.009574
[INPUT] 2    0    [10   /1   ]  52.56900844       0.000329
                                23.81654224       0.004981
                                11.32693504       -0.107244
                                4.99176622        -0.205338
                                2.46839125        -0.365645
                                1.15974738        -0.091627
                                0.53124091        0.261299
                                0.24220121        0.408087
                                0.11248934        0.283046
                                0.05201371        0.07082
[INPUT] 2    0    [10   /1   ]  52.56900844       -0.002087
                                23.81654224       0.00277
                                11.32693504       0.106828
                                4.99176622        0.384896
                                2.46839125        0.360764
                                1.15974738        -0.599205
                                0.53124091        -0.495286
                                0.24220121        0.247074
                                0.11248934        0.472515
                                0.05201371        0.138768
[INPUT] 2    0    [1    /1   ]  0.05201371           1
[INPUT] 2    0    [1    /1   ]  0.02405051           1
[INPUT] 3    0    [1    /1   ]  3.339139             1
[INPUT] 3    0    [1    /1   ]  0.926076             1
[INPUT] 3    0    [1    /1   ]  0.25683768           1
[INPUT] 4    0    [1    /1   ]  2.982582             1
[INPUT] 4    0    [1    /1   ]  0.82718854           1
[INPUT] O
[INPUT] 0    0    [10   /1   ]  57.663349         -0.002794
                                35.726816         0.023976
                                22.453757         -0.115974
                                14.732301         0.288033
                                9.739917          -0.274786
                                5.042008          -0.083789
                                2.157818          0.063778
                                1.002916          0.410182
                                0.421839          0.504044
                                0.173041          0.172152
[INPUT] 0    0    [1    /1   ]  1.849096             1
[INPUT] 0    0    [1    /1   ]  0.255434             1
[INPUT] 0    0    [1    /1   ]  0.141483             1
[INPUT] 1    0    [10   /1   ]  52.47406          -0.000522
                                32.138432         0.004857
                                19.458579         -0.027749
                                11.839344         0.074258
                                7.91003           0.014369
                                3.670858          0.153479
                                1.53966           0.283685
                                0.647119          0.358201
                                0.267853          0.29559
                                0.107198          0.104889
[INPUT] 1    0    [1    /1   ]  0.622175             1
[INPUT] 1    0    [1    /1   ]  0.193391             1
[INPUT] 1    0    [1    /1   ]  0.052779             1
[INPUT] 2    0    [1    /1   ]  2.324251             1
[INPUT] 2    0    [1    /1   ]  0.656935             1
[INPUT] 2    0    [1    /1   ]  0.2072               1
[INPUT] 3    0    [1    /1   ]  1.423472             1
[INPUT] 3    0    [1    /1   ]  0.48761              1
nuclear repulsion = 28.8992408876214
number of shells = 35
number of NR pGTOs = 480
number of NR cGTOs = 133
basis = {'Mn': [[0, [41.19094709, 0.0124], [21.94503151, -0.141461], [12.89081507, 0.669584], [8.14876869, -1.015431], [3.94904809, 0.149151], [1.91298055, 0.350677], [1.10736282, 0.627006], [0.4793266, 0.235349], [0.22675293, -0.024214], [0.10639652, 0.017357], [0.05000494, -0.005272], [0.0234982, 0.002181]], [0, [41.19094709, -0.002036], [21.94503151, 0.02709], [12.89081507, -0.142056], [8.14876869, 0.229945], [3.94904809, -0.035538], [1.91298055, -0.085336], [1.10736282, -0.24355], [0.4793266, -0.201798], [0.22675293, 0.098761], [0.10639652, 0.439512], [0.05000494, 0.524416], [0.0234982, 0.13192]], [0, [41.19094709, -0.004646], [21.94503151, 0.0905], [12.89081507, -0.585022], [8.14876869, 1.111867], [3.94904809, -0.363063], [1.91298055, -1.33458], [1.10736282, 0.12279], [0.4793266, 0.708339], [0.22675293, 0.760146], [0.10639652, 0.035304], [0.05000494, -0.576692], [0.0234982, -0.237352]], [0, [41.19094709, -0.002383], [21.94503151, 0.092523], [12.89081507, -0.733494], [8.14876869, 1.604539], [3.94904809, -0.989623], [1.91298055, -2.287095], [1.10736282, 2.091286], [0.4793266, 1.469902], [0.22675293, -1.522953], [0.10639652, -0.860672], [0.05000494, 0.655242], [0.0234982, 0.514686]], [0, [0.0234982, 1.0]], [0, [0.01104221, 1.0]], [1, [60.1913049, 0.000757], [31.1792672, -0.006538], [16.24276866, 0.042902], [8.80021485, -0.164602], [5.33575038, 0.099387], [3.0325056, 0.217723], [1.63861968, 0.443669], [0.80258711, 0.32785], [0.40627833, 0.098641], [0.17382998, 0.011768], [0.07306386, -0.000703], [0.03071005, 0.000403]], [1, [60.1913049, -0.000118], [31.1792672, 0.001208], [16.24276866, -0.009122], [8.80021485, 0.038924], [5.33575038, -0.027473], [3.0325056, -0.058215], [1.63861968, -0.124371], [0.80258711, -0.107355], [0.40627833, 0.040741], [0.17382998, 0.350952], [0.07306386, 0.523294], [0.03071005, 0.234255]], [1, [60.1913049, -0.000242], [31.1792672, -0.00184], [16.24276866, 0.036267], [8.80021485, -0.233302], [5.33575038, 0.180046], [3.0325056, 0.831949], [1.63861968, 0.087927], [0.80258711, -0.875277], [0.40627833, -0.420967], [0.17382998, 0.588099], [0.07306386, 0.409206], [0.03071005, 0.007901]], [1, [60.1913049, -0.000706], [31.1792672, -0.000652], [16.24276866, 0.057679], [8.80021485, -0.540394], [5.33575038, 1.073974], [3.0325056, 0.867896], [1.63861968, -1.570127], [0.80258711, -0.63828], [0.40627833, 1.540496], [0.17382998, -0.071965], [0.07306386, -0.646393], [0.03071005, -0.005855]], [1, [0.03071005, 1.0]], [1, [0.01290798, 1.0]], [2, [52.56900844, 0.000307], [23.81654224, -0.007961], [11.32693504, 0.114253], [4.99176622, 0.164228], [2.46839125, 0.269996], [1.15974738, 0.320627], [0.53124091, 0.273188], [0.24220121, 0.161357], [0.11248934, 0.058244], [0.05201371, 0.009574]], [2, [52.56900844, 0.000329], [23.81654224, 0.004981], [11.32693504, -0.107244], [4.99176622, -0.205338], [2.46839125, -0.365645], [1.15974738, -0.091627], [0.53124091, 0.261299], [0.24220121, 0.408087], [0.11248934, 0.283046], [0.05201371, 0.07082]], [2, [52.56900844, -0.002087], [23.81654224, 0.00277], [11.32693504, 0.106828], [4.99176622, 0.384896], [2.46839125, 0.360764], [1.15974738, -0.599205], [0.53124091, -0.495286], [0.24220121, 0.247074], [0.11248934, 0.472515], [0.05201371, 0.138768]], [2, [0.05201371, 1.0]], [2, [0.02405051, 1.0]], [3, [3.339139, 1.0]], [3, [0.926076, 1.0]], [3, [0.25683768, 1.0]], [4, [2.982582, 1.0]], [4, [0.82718854, 1.0]]], 'O': [[0, [57.663349, -0.002794], [35.726816, 0.023976], [22.453757, -0.115974], [14.732301, 0.288033], [9.739917, -0.274786], [5.042008, -0.083789], [2.157818, 0.063778], [1.002916, 0.410182], [0.421839, 0.504044], [0.173041, 0.172152]], [0, [1.849096, 1.0]], [0, [0.255434, 1.0]], [0, [0.141483, 1.0]], [1, [52.47406, -0.000522], [32.138432, 0.004857], [19.458579, -0.027749], [11.839344, 0.074258], [7.91003, 0.014369], [3.670858, 0.153479], [1.53966, 0.283685], [0.647119, 0.358201], [0.267853, 0.29559], [0.107198, 0.104889]], [1, [0.622175, 1.0]], [1, [0.193391, 1.0]], [1, [0.052779, 1.0]], [2, [2.324251, 1.0]], [2, [0.656935, 1.0]], [2, [0.2072, 1.0]], [3, [1.423472, 1.0]], [3, [0.48761, 1.0]]]}
ecp = {'Mn': [10, [[-1, [[], [[18.43432244, 15.0]], [[12.74175213, 31301.56494509], [11.67410914, -4576.3546318], [12.90376156, -26766.73507377], [4.97171871, -4.09339906]], [[8.79264819, 276.51483655]]]], [0, [[], [], [[13.56187871, 2771.78238977], [9.44812535, 12553.69429672], [10.76503846, 1886.79316638], [11.65345594, -9260.55332402], [8.48073002, -8943.95003535], [6.96707028, 1041.73211249]], []]], [1, [[], [], [[12.71342918, -23181.32761179], [18.03174513, 111577.22220216], [16.6827906, -42399.84416473], [13.18867124, 16025.79106608], [18.42861128, -76264.60573764], [12.90928974, 14270.47832347]], []]], [2, [[], [], [[8.13384228, -382.83904013], [14.28699222, 5676.99013005], [11.14406629, 35338.03440844], [11.37674978, -38881.44458388], [18.25818233, 3550.6602642], [17.73146307, -5317.47975296]], []]]]], 'O': [2, [[-1, [[], [[10.27717748, 6.0]], [[15.99566749, 1232.50197768], [10.46901775, -696.47008301], [14.6384801, -2654.22657081], [12.57591181, 2101.67732548]], [[7.77739102, 61.66306486]]]], [0, [[], [], [[12.39426073, -656683.37638839], [12.38126171, 657858.57667068], [8.57671033, 511.50098405], [9.89256508, -2579.54665641], [28.05641604, -57.68129584], [17.24753607, 970.30940152]], []]], [1, [[], [], [[14.78918914, -363027.24258186], [14.82014018, 361852.52314043], [22.89622221, -1300.20069256], [8.51331893, -181.96869573], [11.48609758, 2194.87589959], [27.22017524, 451.19906206]], []]]]]}
CPU time:         3.75


******** <class 'pyscf.scf.rohf.ROHF'> flags ********
method = ROHF
initial guess = minao
damping factor = 0
level shift factor = 1000.0
DIIS = <class 'pyscf.scf.diis.CDIIS'>
DIIS start cycle = 1
DIIS space = 8
SCF tol = 1e-09
SCF gradient tol = None
max. SCF cycles = 50
direct_scf = True
direct_scf_tol = 1e-13
chkfile to save SCF result = /rc_scratch/bamu3429/tmp6Krcq_
max_memory 4000 MB (current use 174 MB)
num. doubly occ = 8  num. singly occ = 5
Set gradient conv threshold to 3.16228e-05
init E= -119.139575268782
  HOMO = 499.883664338574  LUMO = 999.974270901427
cycle= 1 E= -119.139575268782  delta_E= -5.12e-13  |g|= 1.14e-05  |ddm|= 3.28e-08
  HOMO = -0.116335668550484  LUMO = -0.0257290981005326
Extra cycle  E= -119.139575268833  delta_E= -5.11e-11  |g|= 1.38e-05  |ddm|= 3.39e-05
converged SCF energy = -119.139575268833
**** MO energy ****
                Roothaan           | alpha              | beta
MO #1   energy= -4.02210659356161  | -4.22660328200218  | -3.81760989880536  occ= 2
MO #2   energy= -2.53503401623585  | -2.77326544682295  | -2.29680256978932  occ= 2
MO #3   energy= -2.53090751664298  | -2.78114287293447  | -2.28067212193893  occ= 2
MO #4   energy= -2.53090751664297  | -2.78114287293447  | -2.28067212193893  occ= 2
MO #5   energy= -1.10927874964448  | -1.12150037952614  | -1.09705717124256  occ= 2
MO #6   energy= -0.39360030097601  | -0.419587907073156 | -0.367614219229435 occ= 2
MO #7   energy= -0.38249638623221  | -0.40596133578595  | -0.359030850883483 occ= 2
MO #8   energy= -0.382496386232209 | -0.40596133578595  | -0.359030850883482 occ= 2
MO #9   energy= -0.14557468610816  | -0.631617402711846 | 0.340467608681061  occ= 1
MO #10  energy= -0.145574686108122 | -0.631617402711781 | 0.340467608681068  occ= 1
MO #11  energy= -0.120897562508025 | -0.506101759818481 | 0.264303935004113  occ= 1
MO #12  energy= -0.116335668550492 | -0.582539773064016 | 0.349867403326974  occ= 1
MO #13  energy= -0.116335668550484 | -0.582539773064018 | 0.349867403326972  occ= 1
MO #14  energy= -0.0257290981005326 | -0.0373385437408861 | -0.0141175414941061 occ= 0
MO #15  energy= 0.0174738999352118 | 0.0158346685799528 | 0.0191131323551691 occ= 0
MO #16  energy= 0.0174738999352138 | 0.0158346685799534 | 0.0191131323551699 occ= 0
MO #17  energy= 0.0207770066176954 | 0.0156173785445611 | 0.0259371011872288 occ= 0
MO #18  energy= 0.0367434542724863 | 0.0359126744118261 | 0.0375743787080971 occ= 0
MO #19  energy= 0.0680812753456009 | 0.0641533804317365 | 0.0720091915758485 occ= 0
MO #20  energy= 0.0680812753456048 | 0.0641533804317387 | 0.0720091915758522 occ= 0
MO #21  energy= 0.0696312994658553 | 0.0693035503653157 | 0.0699590641756913 occ= 0
MO #22  energy= 0.0696312994658558 | 0.0693035503653157 | 0.0699590641756914 occ= 0
MO #23  energy= 0.0762010069208304 | 0.0752110232266509 | 0.0771911217048757 occ= 0
MO #24  energy= 0.0857553736390373 | 0.0813927810772085 | 0.0901179685808979 occ= 0
MO #25  energy= 0.0857553736390409 | 0.0813927810772107 | 0.0901179685809005 occ= 0
MO #26  energy= 0.140955215384612  | 0.135206980994378  | 0.146703375507282  occ= 0
MO #27  energy= 0.142991756146911  | 0.130641634036331  | 0.155342662208461  occ= 0
MO #28  energy= 0.201402482161092  | 0.195644000718153  | 0.207161040911142  occ= 0
MO #29  energy= 0.201402482161103  | 0.19564400071817   | 0.207161040911147  occ= 0
MO #30  energy= 0.213748737066583  | 0.207663964275744  | 0.219833612356235  occ= 0
MO #31  energy= 0.213748737066587  | 0.207663964275745  | 0.219833612356236  occ= 0
MO #32  energy= 0.227864602302808  | 0.223749588465872  | 0.231979789177332  occ= 0
MO #33  energy= 0.280967966401171  | 0.263032954800035  | 0.298902973891409  occ= 0
MO #34  energy= 0.280967966401182  | 0.26303295480002   | 0.298902973891444  occ= 0
MO #35  energy= 0.288005388816061  | 0.282009841274406  | 0.294000942836951  occ= 0
MO #36  energy= 0.288005388816061  | 0.282009841274409  | 0.294000942836948  occ= 0
MO #37  energy= 0.292215837203379  | 0.28683719895528   | 0.297594679721244  occ= 0
MO #38  energy= 0.490328110822533  | 0.470715527956066  | 0.509940804342089  occ= 0
MO #39  energy= 0.741697040117524  | 0.735070067586509  | 0.748324026554181  occ= 0
MO #40  energy= 0.741697040117532  | 0.735070067586515  | 0.748324026554187  occ= 0
MO #41  energy= 0.768176889931637  | 0.738119819206139  | 0.798234000661897  occ= 0
MO #42  energy= 0.779182155512477  | 0.761083187024258  | 0.797281107376001  occ= 0
MO #43  energy= 0.799651153477265  | 0.766882002871198  | 0.832420521748146  occ= 0
MO #44  energy= 0.799651153477269  | 0.766882002871197  | 0.832420521748148  occ= 0
MO #45  energy= 0.865189468444538  | 0.815942280455714  | 0.914436906997763  occ= 0
MO #46  energy= 0.865189468444554  | 0.815942280455717  | 0.914436906997787  occ= 0
MO #47  energy= 0.89702974787903   | 0.881379263856677  | 0.912680198441748  occ= 0
MO #48  energy= 0.917300983916252  | 0.896183963174656  | 0.938418004657851  occ= 0
MO #49  energy= 0.917300983916255  | 0.896183963174659  | 0.938418004657853  occ= 0
MO #50  energy= 0.942599026612597  | 0.936327083533993  | 0.948870975433237  occ= 0
MO #51  energy= 0.942599026612607  | 0.936327083534002  | 0.94887097543325   occ= 0
MO #52  energy= 0.994629153007363  | 0.979857264320539  | 1.00940116308513   occ= 0
MO #53  energy= 1.07632756317374   | 1.06773903005188   | 1.08491609860339   occ= 0
MO #54  energy= 1.07632756317376   | 1.06773903005189   | 1.08491609860341   occ= 0
MO #55  energy= 1.11013503213271   | 1.09099400535281   | 1.12927606920988   occ= 0
MO #56  energy= 1.11013503213271   | 1.09099400535281   | 1.12927606920989   occ= 0
MO #57  energy= 1.525611113879     | 1.48344588770279   | 1.56777637618094   occ= 0
MO #58  energy= 1.52561111387911   | 1.48344588770288   | 1.56777637618106   occ= 0
MO #59  energy= 1.78608852451121   | 1.76807950776332   | 1.80409758115102   occ= 0
MO #60  energy= 1.79427823149995   | 1.75442372700428   | 1.83413274706115   occ= 0
MO #61  energy= 1.79427823149995   | 1.75442372700428   | 1.83413274706115   occ= 0
MO #62  energy= 1.9101494336597    | 1.88207677100081   | 1.93822209657446   occ= 0
MO #63  energy= 2.15549942279249   | 2.15341544863068   | 2.15758339695429   occ= 0
MO #64  energy= 2.15549942279249   | 2.15341544863068   | 2.15758339695429   occ= 0
MO #65  energy= 2.25215746520281   | 2.24789969724684   | 2.25641523283905   occ= 0
MO #66  energy= 2.25215746520282   | 2.24789969724684   | 2.25641523283905   occ= 0
MO #67  energy= 2.27819197119845   | 2.26678354525598   | 2.28960041897617   occ= 0
MO #68  energy= 2.37983393022149   | 2.37292224586385   | 2.38674561466242   occ= 0
MO #69  energy= 2.37983393022149   | 2.37292224586385   | 2.38674561466242   occ= 0
MO #70  energy= 2.42381423313079   | 2.42017861750655   | 2.42744984907558   occ= 0
MO #71  energy= 2.42381423313079   | 2.42017861750656   | 2.42744984907558   occ= 0
MO #72  energy= 2.61390635553882   | 2.59473654032977   | 2.63307619777812   occ= 0
MO #73  energy= 2.77238666571224   | 2.73862164628953   | 2.80615169247464   occ= 0
MO #74  energy= 2.77238666571231   | 2.73862164628959   | 2.80615169247472   occ= 0
MO #75  energy= 2.88293997154886   | 2.84309511087918   | 2.92278480599149   occ= 0
MO #76  energy= 3.13121876030776   | 3.0347865188163    | 3.22765100179922   occ= 0
MO #77  energy= 3.13121876030776   | 3.0347865188163    | 3.22765100179922   occ= 0
MO #78  energy= 3.17900562878283   | 3.08702012573945   | 3.27099113815892   occ= 0
MO #79  energy= 3.17900562878284   | 3.08702012573945   | 3.27099113815893   occ= 0
MO #80  energy= 3.24112291027956   | 3.17383650427204   | 3.30840933822693   occ= 0
MO #81  energy= 3.36213622814097   | 3.29190798178683   | 3.43236450436127   occ= 0
MO #82  energy= 3.36213622814098   | 3.29190798178683   | 3.43236450436127   occ= 0
MO #83  energy= 3.7504646967794    | 3.7112648992253    | 3.7896644943335    occ= 0
MO #84  energy= 3.75046469677942   | 3.71126489922532   | 3.78966449433353   occ= 0
MO #85  energy= 3.77180817791755   | 3.75902453456536   | 3.78459182244254   occ= 0
MO #86  energy= 3.77180817791757   | 3.75902453456539   | 3.78459182244255   occ= 0
MO #87  energy= 3.7971661561513    | 3.76180147467341   | 3.8325308376292    occ= 0
MO #88  energy= 3.7971661561513    | 3.7618014746734    | 3.8325308376292    occ= 0
MO #89  energy= 3.81966923353826   | 3.72048207993514   | 3.91885640744769   occ= 0
MO #90  energy= 3.81966923353827   | 3.72048207993513   | 3.91885640744768   occ= 0
MO #91  energy= 4.00409714266047   | 3.97753939952453   | 4.03065488137188   occ= 0
MO #92  energy= 4.08382618705862   | 4.0520600337199    | 4.11559234109838   occ= 0
MO #93  energy= 4.08382618705864   | 4.05206003371991   | 4.11559234109839   occ= 0
MO #94  energy= 4.33477615723017   | 4.25533675865047   | 4.41421555838299   occ= 0
MO #95  energy= 4.33477615723021   | 4.25533675865051   | 4.41421555838304   occ= 0
MO #96  energy= 4.4700697465558    | 4.43976282238178   | 4.50037665791668   occ= 0
MO #97  energy= 4.47006974655582   | 4.43976282238181   | 4.50037665791669   occ= 0
MO #98  energy= 4.48906689348295   | 4.43738498062498   | 4.54074880727029   occ= 0
MO #99  energy= 4.87201818694819   | 4.83722840553618   | 4.90680797180113   occ= 0
MO #100 energy= 5.48594822659506   | 5.4328694749105    | 5.5390269826524    occ= 0
MO #101 energy= 6.58611281267157   | 6.58375240091079   | 6.58847322443235   occ= 0
MO #102 energy= 6.58611281267157   | 6.58375240091079   | 6.58847322443235   occ= 0
MO #103 energy= 6.68448501972301   | 6.68278967305433   | 6.68618036639074   occ= 0
MO #104 energy= 6.68448501972302   | 6.68278967305433   | 6.68618036639074   occ= 0
MO #105 energy= 6.81901097135436   | 6.80704758503039   | 6.8309743573582    occ= 0
MO #106 energy= 6.82203270608709   | 6.81560007158866   | 6.8284653407247    occ= 0
MO #107 energy= 6.82203270608709   | 6.81560007158865   | 6.82846534072469   occ= 0
MO #108 energy= 7.16832753865723   | 7.16428494704245   | 7.17237013026696   occ= 0
MO #109 energy= 7.16832753865724   | 7.16428494704247   | 7.17237013026697   occ= 0
MO #110 energy= 7.31558244924725   | 7.30526748422534   | 7.32589741415345   occ= 0
MO #111 energy= 7.31558244924726   | 7.30526748422533   | 7.32589741415345   occ= 0
MO #112 energy= 7.66192255475626   | 7.65093373844514   | 7.67291137161087   occ= 0
MO #113 energy= 8.04966853116657   | 7.98747732616141   | 8.11185973655788   occ= 0
MO #114 energy= 8.04966853116659   | 7.98747732616142   | 8.1118597365579    occ= 0
MO #115 energy= 8.70055631432036   | 8.63163104560464   | 8.7694815842568    occ= 0
MO #116 energy= 9.94704346267791   | 9.82536507176108   | 10.0687218535947   occ= 0
MO #117 energy= 9.94704346267792   | 9.82536507176107   | 10.0687218535947   occ= 0
MO #118 energy= 9.97232915136193   | 9.8473877724687    | 10.0972705318183   occ= 0
MO #119 energy= 9.97232915136194   | 9.84738777246868   | 10.0972705318183   occ= 0
MO #120 energy= 10.135741837331    | 10.0226710626862   | 10.2488126145442   occ= 0
MO #121 energy= 10.135741837331    | 10.0226710626862   | 10.2488126145442   occ= 0
MO #122 energy= 10.5125152074788   | 10.4187295021353   | 10.6063009140521   occ= 0
MO #123 energy= 12.8743226737498   | 12.8381934664606   | 12.91045188087     occ= 0
MO #124 energy= 13.12483038498     | 13.0444826847782   | 13.2051780851817   occ= 0
MO #125 energy= 13.12483038498     | 13.0444826847782   | 13.2051780851817   occ= 0
MO #126 energy= 13.137904285813    | 13.0557910049633   | 13.2200175666626   occ= 0
MO #127 energy= 13.137904285813    | 13.0557910049633   | 13.2200175666626   occ= 0
MO #128 energy= 13.2207601785556   | 13.1415629153384   | 13.2999574418139   occ= 0
MO #129 energy= 13.2207601785556   | 13.1415629153384   | 13.2999574418139   occ= 0
MO #130 energy= 13.3736745799757   | 13.2981958916725   | 13.4491532681651   occ= 0
MO #131 energy= 13.3736745799757   | 13.2981958916725   | 13.4491532681651   occ= 0
MO #132 energy= 13.736219008827    | 13.6884998530022   | 13.7839381644742   occ= 0
MO #133 energy= 14.2090776626496   | 14.1862264254457   | 14.2319288998522   occ= 0
 ** Mulliken pop on meta-lowdin orthogonal AOs  **
 ** Mulliken pop  **
pop of  0Mn 3s        1.99990
pop of  0Mn 4s        0.45528
pop of  0Mn 5s        0.01278
pop of  0Mn 6s        0.00298
pop of  0Mn 7s        0.00448
pop of  0Mn 8s        0.00155
pop of  0Mn 3px       1.99956
pop of  0Mn 3py       1.99956
pop of  0Mn 3pz       1.99853
pop of  0Mn 4px       0.04030
pop of  0Mn 4py       0.04030
pop of  0Mn 4pz       0.00316
pop of  0Mn 5px       0.00186
pop of  0Mn 5py       0.00186
pop of  0Mn 5pz       0.00135
pop of  0Mn 6px       0.00005
pop of  0Mn 6py       0.00005
pop of  0Mn 6pz       0.00036
pop of  0Mn 7px       0.00427
pop of  0Mn 7py       0.00427
pop of  0Mn 7pz       0.00285
pop of  0Mn 8px       0.00053
pop of  0Mn 8py       0.00053
pop of  0Mn 8pz       0.00032
pop of  0Mn 3dxy      0.99691
pop of  0Mn 3dyz      1.05950
pop of  0Mn 3dz^2     1.02019
pop of  0Mn 3dxz      1.05950
pop of  0Mn 3dx2-y2    0.99691
pop of  0Mn 4dxy      0.00189
pop of  0Mn 4dyz      0.00299
pop of  0Mn 4dz^2     0.00033
pop of  0Mn 4dxz      0.00299
pop of  0Mn 4dx2-y2    0.00189
pop of  0Mn 5dxy      0.00014
pop of  0Mn 5dyz      0.00011
pop of  0Mn 5dz^2     0.00104
pop of  0Mn 5dxz      0.00011
pop of  0Mn 5dx2-y2    0.00014
pop of  0Mn 6dxy      0.00049
pop of  0Mn 6dyz      0.00147
pop of  0Mn 6dz^2     0.00101
pop of  0Mn 6dxz      0.00147
pop of  0Mn 6dx2-y2    0.00049
pop of  0Mn 7dxy      0.00003
pop of  0Mn 7dyz      0.00013
pop of  0Mn 7dz^2     0.00037
pop of  0Mn 7dxz      0.00013
pop of  0Mn 7dx2-y2    0.00003
pop of  0Mn 4fy^3     0.00000
pop of  0Mn 4fxyz     0.00001
pop of  0Mn 4fyz^2    0.00003
pop of  0Mn 4fz^3     0.00005
pop of  0Mn 4fxz^2    0.00003
pop of  0Mn 4fzx^2    0.00001
pop of  0Mn 4fx^3     0.00000
pop of  0Mn 5fy^3     0.00000
pop of  0Mn 5fxyz     0.00011
pop of  0Mn 5fyz^2    0.00039
pop of  0Mn 5fz^3     0.00038
pop of  0Mn 5fxz^2    0.00039
pop of  0Mn 5fzx^2    0.00011
pop of  0Mn 5fx^3     0.00000
pop of  0Mn 6fy^3     0.00000
pop of  0Mn 6fxyz     0.00018
pop of  0Mn 6fyz^2    0.00015
pop of  0Mn 6fz^3     0.00009
pop of  0Mn 6fxz^2    0.00015
pop of  0Mn 6fzx^2    0.00018
pop of  0Mn 6fx^3     0.00000
pop of  0Mn 5g-4      0.00000
pop of  0Mn 5g-3      0.00000
pop of  0Mn 5g-2      0.00000
pop of  0Mn 5g-1      0.00000
pop of  0Mn 5g 0      0.00000
pop of  0Mn 5g 1      0.00000
pop of  0Mn 5g 2      0.00000
pop of  0Mn 5g 3      0.00000
pop of  0Mn 5g 4      0.00000
pop of  0Mn 6g-4      0.00000
pop of  0Mn 6g-3      0.00000
pop of  0Mn 6g-2      0.00000
pop of  0Mn 6g-1      0.00003
pop of  0Mn 6g 0      0.00008
pop of  0Mn 6g 1      0.00003
pop of  0Mn 6g 2      0.00000
pop of  0Mn 6g 3      0.00000
pop of  0Mn 6g 4      0.00000
pop of  1O 2s        1.89732
pop of  1O 3s        0.00053
pop of  1O 4s        0.00090
pop of  1O 5s        0.00350
pop of  1O 2px       1.84491
pop of  1O 2py       1.84491
pop of  1O 2pz       1.57791
pop of  1O 3px       0.00004
pop of  1O 3py       0.00004
pop of  1O 3pz       0.00018
pop of  1O 4px       0.01616
pop of  1O 4py       0.01616
pop of  1O 4pz       0.00502
pop of  1O 5px       0.01293
pop of  1O 5py       0.01293
pop of  1O 5pz       0.00296
pop of  1O 3dxy      0.00000
pop of  1O 3dyz      0.00028
pop of  1O 3dz^2     0.00040
pop of  1O 3dxz      0.00028
pop of  1O 3dx2-y2    0.00000
pop of  1O 4dxy      0.00000
pop of  1O 4dyz      0.00301
pop of  1O 4dz^2     0.00247
pop of  1O 4dxz      0.00301
pop of  1O 4dx2-y2    0.00000
pop of  1O 5dxy      0.00017
pop of  1O 5dyz      0.01043
pop of  1O 5dz^2     0.00163
pop of  1O 5dxz      0.01043
pop of  1O 5dx2-y2    0.00017
pop of  1O 4fy^3     0.00000
pop of  1O 4fxyz     0.00000
pop of  1O 4fyz^2    0.00006
pop of  1O 4fz^3     0.00009
pop of  1O 4fxz^2    0.00006
pop of  1O 4fzx^2    0.00000
pop of  1O 4fx^3     0.00000
pop of  1O 5fy^3     0.00000
pop of  1O 5fxyz     0.00006
pop of  1O 5fyz^2    0.00079
pop of  1O 5fz^3     0.00001
pop of  1O 5fxz^2    0.00079
pop of  1O 5fzx^2    0.00006
pop of  1O 5fx^3     0.00000
 ** Mulliken atomic charges  **
charge of  0Mn =      1.27062
charge of  1O =     -1.27062

******** <class 'pyscf.mcscf.mc1step.CASSCF'> flags ********
CAS (8e+3e, 9o), ncore = 5, nvir = 119
max_cycle_macro = 50
max_cycle_micro = 4
conv_tol = 1e-07
conv_tol_grad = None
orbital rotation max_stepsize = 0.02
augmented hessian ah_max_cycle = 30
augmented hessian ah_conv_tol = 1e-12
augmented hessian ah_linear dependence = 1e-14
augmented hessian ah_level shift = 0
augmented hessian ah_start_tol = 2.5
augmented hessian ah_start_cycle = 3
augmented hessian ah_grad_trust_region = 3
kf_trust_region = 3
kf_interval = 4
ci_response_space = 4
ci_grad_trust_region = 3
with_dep4 0
natorb = False
canonicalization = True
sorting_mo_energy = False
chkfile = ./scratch/172036/tmpcjEG5k
max_memory 4000 MB (current use 606 MB)
internal_rotation = False

******** SHCI flags ********
executable             = /home/bamu3429/softwares/dice/Dice
mpiprefix              = srun -n20
scratchDirectory       = ./scratch/172036
integralFile           = ./FCIDUMP
configFile             = ./input.dat
outputFile             = ./output.dat
maxIter                = 6
sweep_iter             = []
sweep_epsilon          = []
nPTiter                = 0
Stochastic             = True
fullrestart            = False
restart                = False
num_thrds              = 12
memory                 = None

CASCI E = -119.148202560289  S^2 = 8.7500000
Set conv_tol_grad to 0.000316228
macro iter 1 (21 JK  4 micro), CASSCF E = -119.204584366313  dE = -0.056381806  S^2 = 8.7500000
               |grad[o]|=0.0621  |grad[c]|= None  |ddm|=0.428
macro iter 2 (13 JK  4 micro), CASSCF E = -119.226513588013  dE = -0.021929222  S^2 = 8.7500000
               |grad[o]|=0.154  |grad[c]|= None  |ddm|= 0.26
macro iter 3 (9 JK  4 micro), CASSCF E = -119.226777622425  dE = -0.00026403441  S^2 = 8.7500000
               |grad[o]|=0.0174  |grad[c]|= None  |ddm|=0.027
macro iter 4 (8 JK  3 micro), CASSCF E = -119.22677811873  dE = -4.9630458e-07  S^2 = 8.7500000
               |grad[o]|=0.000643  |grad[c]|= None  |ddm|=0.000911
macro iter 5 (3 JK  1 micro), CASSCF E = -119.226778122532  dE = -3.8023558e-09  S^2 = 8.7500000
               |grad[o]|=6.02e-05  |grad[c]|= None  |ddm|=    0
1-step CASSCF converged in 5 macro (54 JK 16 micro) steps
CASSCF canonicalization
CASSCF energy = -119.226778122532


--------------------------------------------------
                 ICMPSPT CALCULATION              
--------------------------------------------------

Perturbation type: MRLCC
With fully internally contracted scheme
With third order correction

Preparing necessary RDMs
......production of RDMs took      46.36 sec
Reading binary 4RDM from DICE
......reading the RDM took         27.55 sec

(GOOD) Trace 4RDM:   7920.0 =   11*   10*    9*    8
(GOOD) Trace 3RDM:    990.0 =   11*   10*    9
(GOOD) Trace 2RDM:    110.0 =   11*   10
(GOOD) Trace 1RDM:     11.0 =   11

Producing the integrals
......production of INT took     137.48 sec

Energy_core = -117.14132269
Energy      = -119.22677812

WARNING: Have to use natural orbitals from CAASCF
         offdiagonal elements:    0.78909559

Basic ingredients written to int/
......savings of INGREDIENTS took     135.82 sec

Second-order:
perturber CCVV --        -0.109185815
perturber CCAV --        -0.049026611
perturber ACVV --        -0.216775386
perturber CCAA --        -0.029515806
perturber AAVV --        -0.233698423
perturber CAAV --        -0.147452184
perturber AAAV --        -0.052209467
perturber AAAC --        -0.001968223
Total:                   -0.839831914

Third-order:              0.000832947

Total PT       --        -0.838998967

