 &FCI NORB=6 ,NELEC=6 ,MS2=6,
  ORBSYM=1,1,1,1,1,1,
  ISYM=1,
 &END
  2.690727188207e-01    1  1  1  1
  4.019742722409e-04    2  1  1  1
  1.458024252316e-03    2  1  2  1
  9.191891085098e-02    2  2  1  1
 -3.136143901852e-05    2  2  2  1
  7.181286592038e-02    2  2  2  2
  7.625619234260e-06    3  1  1  1
  4.470230514143e-05    3  1  2  1
  3.789661972226e-05    3  1  2  2
  1.521963115219e-03    3  1  3  1
 -7.176657088361e-03    3  2  1  1
  3.257121532740e-05    3  2  2  1
 -7.783115950971e-04    3  2  2  2
 -2.633660645583e-05    3  2  3  1
  4.999159821202e-03    3  2  3  2
  8.570151013657e-02    3  3  1  1
  7.294405291277e-05    3  3  2  1
  6.305540823347e-02    3  3  2  2
 -2.979017913753e-05    3  3  3  1
  6.337651251963e-05    3  3  3  2
  7.108335013730e-02    3  3  3  3
 -3.328622584693e-04    4  1  1  1
  1.854769561515e-05    4  1  2  1
 -8.761309609719e-05    4  1  2  2
  3.395598914210e-05    4  1  3  1
  6.443524260553e-05    4  1  3  2
 -1.230834852821e-05    4  1  3  3
  1.461662662011e-03    4  1  4  1
  1.180903732976e-02    4  2  1  1
 -8.248200774483e-07    4  2  2  1
  1.263275585187e-03    4  2  2  2
  3.277599929716e-05    4  2  3  1
 -1.309293374871e-03    4  2  3  2
  7.261616331500e-04    4  2  3  3
 -7.564909237523e-05    4  2  4  1
  6.277841384027e-03    4  2  4  2
 -7.666140685323e-03    4  3  1  1
  1.233456757304e-05    4  3  2  1
 -1.353587978675e-03    4  3  2  2
 -1.969440441956e-05    4  3  3  1
  6.445743212287e-04    4  3  3  2
  7.539304527696e-05    4  3  3  3
  8.253646575013e-05    4  3  4  1
 -1.433812890897e-03    4  3  4  2
  5.083309143986e-03    4  3  4  3
  9.341392130810e-02    4  4  1  1
  7.291486855268e-05    4  4  2  1
  6.444611274677e-02    4  4  2  2
  2.935050159337e-05    4  4  3  1
 -1.483450801722e-03    4  4  3  2
  6.313138208892e-02    4  4  3  3
 -9.814000256585e-05    4  4  4  1
  1.599334100338e-03    4  4  4  2
 -1.047670211845e-03    4  4  4  3
  7.215176881755e-02    4  4  4  4
  1.171773656457e-02    5  1  1  1
 -1.136950286685e-04    5  1  2  1
  2.669144702482e-03    5  1  2  2
  4.717871918396e-05    5  1  3  1
 -1.682534924208e-03    5  1  3  2
  1.595709762833e-03    5  1  3  3
 -4.823358658702e-05    5  1  4  1
  3.038983328620e-03    5  1  4  2
 -1.816664977811e-03    5  1  4  3
  3.040314124930e-03    5  1  4  4
  1.354934971165e-02    5  1  5  1
  4.828901020971e-04    5  2  1  1
  2.675835197685e-04    5  2  2  1
  5.925998180622e-05    5  2  2  2
 -5.685860097055e-05    5  2  3  1
 -6.189874160239e-06    5  2  3  2
  5.537096750152e-05    5  2  3  3
  3.027992429823e-04    5  2  4  1
  4.582423548523e-06    5  2  4  2
 -1.305486056278e-05    5  2  4  3
  6.115107355208e-05    5  2  4  4
 -5.984614729813e-05    5  2  5  1
  2.142383724673e-03    5  2  5  2
 -3.231724987370e-04    5  3  1  1
 -5.279955204326e-05    5  3  2  1
 -5.022329813383e-05    5  3  2  2
  4.178220195098e-04    5  3  3  1
 -5.265378390240e-06    5  3  3  2
 -1.725318805199e-05    5  3  3  3
 -7.682530383575e-05    5  3  4  1
 -7.680276937224e-06    5  3  4  2
 -1.037277338431e-05    5  3  4  3
 -3.446258451129e-05    5  3  4  4
  6.410263229884e-05    5  3  5  1
 -1.213671297174e-03    5  3  5  2
  1.143485911676e-03    5  3  5  3
  6.877910101600e-04    5  4  1  1
  2.951943951028e-04    5  4  2  1
  1.141627880481e-04    5  4  2  2
 -7.579040315803e-05    5  4  3  1
 -2.492624273298e-05    5  4  3  2
  7.653096888980e-05    5  4  3  3
  3.091989584955e-04    5  4  4  1
  2.243200953830e-05    5  4  4  2
 -1.412153090415e-05    5  4  4  3
  5.845823951220e-05    5  4  4  4
 -7.753866576408e-05    5  4  5  1
  1.987763057775e-03    5  4  5  2
 -1.298207970652e-03    5  4  5  3
  2.404627104933e-03    5  4  5  4
  3.480671127743e-01    5  5  1  1
 -3.489315347074e-04    5  5  2  1
  1.118347225502e-01    5  5  2  2
  4.953893531688e-04    5  5  3  1
 -2.013836441720e-02    5  5  3  2
  9.462006300845e-02    5  5  3  3
 -1.015954022954e-03    5  5  4  1
  3.265694750647e-02    5  5  4  2
 -2.150838686754e-02    5  5  4  3
  1.161289069843e-01    5  5  4  4
  5.287487442598e-02    5  5  5  1
  1.306002325051e-03    5  5  5  2
 -7.596086176900e-04    5  5  5  3
  1.630948101435e-03    5  5  5  4
  7.629843566867e-01    5  5  5  5
 -1.236874925091e-03    6  1  1  1
  1.933463115103e-03    6  1  2  1
 -5.022641208834e-04    6  1  2  2
 -1.299115753789e-03    6  1  3  1
  2.352529541453e-04    6  1  3  2
 -1.283973221815e-04    6  1  3  3
  2.080042011952e-03    6  1  4  1
 -2.231521467212e-04    6  1  4  2
  1.633041259682e-04    6  1  4  3
 -2.708752373277e-04    6  1  4  4
 -6.364992984903e-04    6  1  5  1
  1.216275885717e-03    6  1  5  2
 -8.320432493632e-04    6  1  5  3
  1.274281108386e-03    6  1  5  4
 -4.688846944593e-03    6  1  5  5
  8.496086372406e-03    6  1  6  1
  6.237400503541e-02    6  2  1  1
 -1.216689681390e-04    6  2  2  1
  1.135500062120e-02    6  2  2  2
  1.404027821238e-04    6  2  3  1
 -4.564648614131e-03    6  2  3  2
  8.553949820231e-03    6  2  3  3
 -2.630883866559e-04    6  2  4  1
  7.333986785373e-03    6  2  4  2
 -5.429057558320e-03    6  2  4  3
  1.401519737965e-02    6  2  4  4
  1.074017777104e-02    6  2  5  1
  1.506374942201e-04    6  2  5  2
 -6.608400616027e-05    6  2  5  3
  1.915428110452e-04    6  2  5  4
  1.385203109135e-01    6  2  5  5
 -1.221709134778e-03    6  2  6  1
  3.434195552966e-02    6  2  6  2
 -4.136894003194e-02    6  3  1  1
  7.052556526444e-05    6  3  2  1
 -8.606669547038e-03    6  3  2  2
 -6.958470966023e-05    6  3  3  1
  2.562501490606e-03    6  3  3  2
 -4.615828505675e-03    6  3  3  3
  2.134589488658e-04    6  3  4  1
 -5.430027310366e-03    6  3  4  2
  2.731989639898e-03    6  3  4  3
 -9.313853072575e-03    6  3  4  4
 -7.143413970522e-03    6  3  5  1
 -8.562938353402e-05    6  3  5  2
  5.039328119481e-05    6  3  5  3
 -1.199983353838e-04    6  3  5  4
 -9.187027823339e-02    6  3  5  5
  7.368635098563e-04    6  3  6  1
 -2.239842862140e-02    6  3  6  2
  1.537534665672e-02    6  3  6  3
  6.670663121342e-02    6  4  1  1
 -6.572315307555e-05    6  4  2  1
  1.384380496248e-02    6  4  2  2
  1.597062396798e-04    6  4  3  1
 -5.436602317601e-03    6  4  3  2
  9.150570151274e-03    6  4  3  3
 -3.714543249936e-04    6  4  4  1
  7.945893389087e-03    6  4  4  2
 -5.273575937905e-03    6  4  4  3
  1.328575229590e-02    6  4  4  4
  1.146753983015e-02    6  4  5  1
  1.344479996643e-04    6  4  5  2
 -6.575382536780e-05    6  4  5  3
  1.974207602521e-04    6  4  5  4
  1.480909203601e-01    6  4  5  5
 -1.051168261636e-03    6  4  6  1
  3.607605250896e-02    6  4  6  2
 -2.393211042049e-02    6  4  6  3
  3.913223280753e-02    6  4  6  4
 -3.972428488772e-04    6  5  1  1
  1.046297688946e-03    6  5  2  1
  3.463407819916e-06    6  5  2  2
 -7.312936855891e-04    6  5  3  1
  5.675542353518e-05    6  5  3  2
 -3.420696703613e-05    6  5  3  3
  1.131260752136e-03    6  5  4  1
 -1.319254462639e-04    6  5  4  2
  9.815762541718e-05    6  5  4  3
 -1.890342002643e-04    6  5  4  4
 -7.035009426491e-04    6  5  5  1
  7.191297396780e-03    6  5  5  2
 -4.768611647779e-03    6  5  5  3
  7.705340471455e-03    6  5  5  4
  4.218381901701e-04    6  5  5  5
  4.385501425092e-03    6  5  6  1
 -3.234809375341e-04    6  5  6  2
  2.835283744071e-04    6  5  6  3
 -5.482869182491e-04    6  5  6  4
  2.786668826238e-02    6  5  6  5
  3.078100273039e-01    6  6  1  1
 -4.394076383823e-04    6  6  2  1
  1.079096024897e-01    6  6  2  2
  5.204113836503e-04    6  6  3  1
 -1.998105673165e-02    6  6  3  2
  9.063932918699e-02    6  6  3  3
 -1.049788542575e-03    6  6  4  1
  3.216004240601e-02    6  6  4  2
 -2.131210881813e-02    6  6  4  3
  1.121070499693e-01    6  6  4  4
  4.183625146315e-02    6  6  5  1
  4.874869274901e-04    6  6  5  2
 -2.134882978809e-04    6  6  5  3
  6.328948028909e-04    6  6  5  4
  6.037379822913e-01    6  6  5  5
 -4.117477800200e-03    6  6  6  1
  1.324544343334e-01    6  6  6  2
 -8.781588378471e-02    6  6  6  3
  1.415403860860e-01    6  6  6  4
 -1.925922899172e-03    6  6  6  5
  5.797100648090e-01    6  6  6  6
 -1.926437876797e+00    1  1  0  0
  3.059595335141e-04    2  1  0  0
 -6.086643022225e-01    2  2  0  0
 -1.893456120124e-03    3  1  0  0
  8.974961149895e-02    3  2  0  0
 -5.311087753694e-01    3  3  0  0
  4.918164455270e-03    4  1  0  0
 -1.455128194585e-01    4  2  0  0
  9.577429597674e-02    4  3  0  0
 -6.275969890845e-01    4  4  0  0
 -1.859787813172e-01    5  1  0  0
 -4.811513073999e-03    5  2  0  0
  2.894586109186e-03    5  3  0  0
 -6.371750846520e-03    5  4  0  0
 -3.321084249690e+00    5  5  0  0
  2.029056143944e-02    6  1  0  0
 -6.543805335205e-01    6  2  0  0
  4.338337607867e-01    6  3  0  0
 -6.994963790643e-01    6  4  0  0
  2.634194040094e-03    6  5  0  0
 -2.906401595698e+00    6  6  0  0
    -76.067913673183   0  0  0  0
