#INFO: **** input file is /projects/bamu3429/BENCHMARK/fresh_atoms/MRPT/vtz/atoms/Cr_0/mrpt.py ****
import json
from pyscf import gto,scf,mcscf, fci, lo, ci, cc
from pyscf.scf import ROHF, UHF,ROKS
import numpy as np
import pandas as pd

# THIS IS WERE IT STARTS ====================================

df=json.load(open("../../../trail.json"))

spins={'Sc':1, 'Ti':2, 'V':3, 'Cr':6, 'Mn':5, 'Fe':4, 'Cu':1}

nd={'Sc':(1,0), 'Ti':(2,0), 'V':(3,0), 'Cr':(5,0), 'Mn':(5,0), 'Fe':(5,1), 'Cu':(5,5)}

cas={'Sc':3, 'Ti':4, 'V':5, 'Cr':6, 'Mn':7, 'Fe':8, 'Cu':11}

datacsv={}
for nm in ['atom','charge','method','basis','pseudopotential','hf',
           'totalenergy','totalenergy-stocherr','totalenergy-syserr']:
  datacsv[nm]=[]

basis='vtz'
el='Cr'
charge=0

mol=gto.Mole()
mol.ecp={}
mol.basis={}
mol.ecp[el]=gto.basis.parse_ecp(df[el]['ecp'])
mol.basis[el]=gto.basis.parse(df[el][basis])
mol.charge=charge
if el == 'Cr' or el == 'Cu':
  mol.spin=spins[el]-charge
else:
  mol.spin=spins[el]+charge
mol.build(atom="%s 0. 0. 0."%el,verbose=4)

m=ROHF(mol)
m.level_shift=1000.0
dm=m.from_chk("../../../../HF/atoms/"+el+basis+str(charge)+".chk")
hf=m.kernel(dm)
m.analyze()

from pyscf.shciscf import shci
mc = shci.SHCISCF(m, 6, cas[el]-charge)
#mc.fcisolver.conv_tol = 1e-14
mc.fcisolver.mpiprefix="srun -n20"
mc.fcisolver.num_thrds=12
mc.verbose = 4
cas=mc.kernel()[0]
 
from pyscf.icmpspt import icmpspt
pt=icmpspt.icmpspt(mc,rdmM=500, PTM=1000,\
                          pttype="MRLCC",\
                          third_order=True,\
                          fully_ic=True,\
                          do_dm4=True)

datacsv['atom'].append(el)
datacsv['charge'].append(charge)
datacsv['method'].append('MRPT')
datacsv['basis'].append(basis)
datacsv['pseudopotential'].append('trail')
datacsv['hf'].append(hf)
datacsv['totalenergy'].append(cas+pt)
datacsv['totalenergy-stocherr'].append(0.0)
datacsv['totalenergy-syserr'].append(0.0)
pd.DataFrame(datacsv).to_csv(el+".csv",index=False)

#INFO: ******************** input file end ********************


System: ('Linux', 'bnode0302.rc.int.colorado.edu', '3.10.0-514.41.1.el7.x86_64', '#1 SMP Wed Jan 17 10:26:16 EST 2018', 'x86_64', 'x86_64')  Threads 28
Python 2.7.11 (default, Mar 22 2016, 01:42:54) 
[GCC Intel(R) C++ gcc 4.8 mode]
numpy 1.11.1  scipy 0.17.1
Date: Wed Apr 18 16:14:44 2018
PySCF version 1.4.6
PySCF path  /projects/bamu3429/softwares/pyscf_uptodate/pyscf
GIT ORIG_HEAD f3591ef22170896a4cdc2aadaa6f5da388ffcadb
GIT HEAD      ref: refs/heads/master
GIT master branch  1847583fb1d2472321833d3c71c8b7008e5fabf5

[INPUT] VERBOSE 4
[INPUT] num atoms = 1
[INPUT] num electrons = 14
[INPUT] charge = 0
[INPUT] spin (= nelec alpha-beta = 2S) = 6
[INPUT] symmetry False subgroup None
[INPUT]  1 Cr     0.000000000000   0.000000000000   0.000000000000 AA    0.000000000000   0.000000000000   0.000000000000 Bohr
[INPUT] ---------------- BASIS SET ---------------- 
[INPUT] l, kappa, [nprim/nctr], expnt,             c_1 c_2 ...
[INPUT] Cr
[INPUT] 0    0    [12   /1   ]  41.45590127       0.010332
                                22.20089455       -0.091393
                                12.37022616       0.412444
                                7.15443966        -0.722409
                                3.63012556        0.039693
                                1.88942247        0.321055
                                1.04381355        0.652182
                                0.47307333        0.264443
                                0.22628807        -0.008646
                                0.10750747        0.012188
                                0.05101028        -0.00242
                                0.0242372         0.001733
[INPUT] 0    0    [12   /1   ]  41.45590127       -0.001971
                                22.20089455       0.019152
                                12.37022616       -0.094562
                                7.15443966        0.178991
                                3.63012556        -0.015716
                                1.88942247        -0.084882
                                1.04381355        -0.243744
                                0.47307333        -0.214624
                                0.22628807        0.055092
                                0.10750747        0.415903
                                0.05101028        0.543473
                                0.0242372         0.170131
[INPUT] 0    0    [12   /1   ]  41.45590127       -0.005985
                                22.20089455       0.069637
                                12.37022616       -0.403654
                                7.15443966        0.899468
                                3.63012556        -0.19655
                                1.88942247        -1.358682
                                1.04381355        -0.066602
                                0.47307333        0.748011
                                0.22628807        0.743168
                                0.10750747        0.120335
                                0.05101028        -0.554574
                                0.0242372         -0.284337
[INPUT] 0    0    [12   /1   ]  41.45590127       -0.005431
                                22.20089455       0.075825
                                12.37022616       -0.506871
                                7.15443966        1.314927
                                3.63012556        -0.7377
                                1.88942247        -2.271634
                                1.04381355        1.711851
                                0.47307333        1.720924
                                0.22628807        -1.434003
                                0.10750747        -1.046849
                                0.05101028        0.595081
                                0.0242372         0.606245
[INPUT] 0    0    [1    /1   ]  0.0242372            1
[INPUT] 0    0    [1    /1   ]  0.01151614           1
[INPUT] 1    0    [12   /1   ]  28.88080716       -0.002973
                                13.19380569       0.044202
                                7.25722596        -0.232476
                                4.84342676        0.167654
                                2.76949909        0.179744
                                1.50719356        0.46058
                                0.72516508        0.338218
                                0.36385743        0.097984
                                0.16204617        0.012145
                                0.07447705        -0.000948
                                0.03422994        0.000821
                                0.01573221        -0.00022
[INPUT] 1    0    [12   /1   ]  28.88080716       0.000536
                                13.19380569       -0.009363
                                7.25722596        0.054752
                                4.84342676        -0.042977
                                2.76949909        -0.049244
                                1.50719356        -0.128712
                                0.72516508        -0.11682
                                0.36385743        0.044517
                                0.16204617        0.322192
                                0.07447705        0.482878
                                0.03422994        0.275764
                                0.01573221        0.025472
[INPUT] 1    0    [12   /1   ]  28.88080716       -0.000428
                                13.19380569       0.034429
                                7.25722596        -0.307446
                                4.84342676        0.24996
                                2.76949909        0.789151
                                1.50719356        0.129313
                                0.72516508        -0.921684
                                0.36385743        -0.378847
                                0.16204617        0.566809
                                0.07447705        0.440905
                                0.03422994        0.024535
                                0.01573221        0.005078
[INPUT] 1    0    [12   /1   ]  28.88080716       0.002227
                                13.19380569       0.046024
                                7.25722596        -0.727345
                                4.84342676        1.251481
                                2.76949909        1.00182
                                1.50719356        -1.701806
                                0.72516508        -0.622978
                                0.36385743        1.581831
                                0.16204617        -0.060905
                                0.07447705        -0.667464
                                0.03422994        -0.031147
                                0.01573221        -0.01129
[INPUT] 1    0    [1    /1   ]  0.01573221           1
[INPUT] 1    0    [1    /1   ]  0.00723058           1
[INPUT] 2    0    [10   /1   ]  46.50908408       0.000358
                                21.60133229       -0.010512
                                11.03652449       0.11118
                                4.54288797        0.164184
                                2.18180243        0.267436
                                1.04009058        0.310836
                                0.48262909        0.28353
                                0.21570372        0.173079
                                0.10059873        0.057279
                                0.04653409        0.00937
[INPUT] 2    0    [10   /1   ]  46.50908408       0.000725
                                21.60133229       0.005694
                                11.03652449       -0.104091
                                4.54288797        -0.217444
                                2.18180243        -0.413534
                                1.04009058        -0.07805
                                0.48262909        0.290464
                                0.21570372        0.417258
                                0.10059873        0.237439
                                0.04653409        0.051282
[INPUT] 2    0    [10   /1   ]  46.50908408       -0.003236
                                21.60133229       0.00626
                                11.03652449       0.082765
                                4.54288797        0.409918
                                2.18180243        0.374551
                                1.04009058        -0.692379
                                0.48262909        -0.433198
                                0.21570372        0.307071
                                0.10059873        0.45679
                                0.04653409        0.105679
[INPUT] 2    0    [1    /1   ]  0.04653409           1
[INPUT] 2    0    [1    /1   ]  0.02152533           1
[INPUT] 3    0    [1    /1   ]  2.951278             1
[INPUT] 3    0    [1    /1   ]  0.820301             1
[INPUT] 3    0    [1    /1   ]  0.22800079           1
[INPUT] 4    0    [1    /1   ]  2.625115             1
[INPUT] 4    0    [1    /1   ]  0.72964472           1
nuclear repulsion = 0
number of shells = 22
number of NR pGTOs = 399
number of NR cGTOs = 88
basis = {'Cr': [[0, [41.45590127, 0.010332], [22.20089455, -0.091393], [12.37022616, 0.412444], [7.15443966, -0.722409], [3.63012556, 0.039693], [1.88942247, 0.321055], [1.04381355, 0.652182], [0.47307333, 0.264443], [0.22628807, -0.008646], [0.10750747, 0.012188], [0.05101028, -0.00242], [0.0242372, 0.001733]], [0, [41.45590127, -0.001971], [22.20089455, 0.019152], [12.37022616, -0.094562], [7.15443966, 0.178991], [3.63012556, -0.015716], [1.88942247, -0.084882], [1.04381355, -0.243744], [0.47307333, -0.214624], [0.22628807, 0.055092], [0.10750747, 0.415903], [0.05101028, 0.543473], [0.0242372, 0.170131]], [0, [41.45590127, -0.005985], [22.20089455, 0.069637], [12.37022616, -0.403654], [7.15443966, 0.899468], [3.63012556, -0.19655], [1.88942247, -1.358682], [1.04381355, -0.066602], [0.47307333, 0.748011], [0.22628807, 0.743168], [0.10750747, 0.120335], [0.05101028, -0.554574], [0.0242372, -0.284337]], [0, [41.45590127, -0.005431], [22.20089455, 0.075825], [12.37022616, -0.506871], [7.15443966, 1.314927], [3.63012556, -0.7377], [1.88942247, -2.271634], [1.04381355, 1.711851], [0.47307333, 1.720924], [0.22628807, -1.434003], [0.10750747, -1.046849], [0.05101028, 0.595081], [0.0242372, 0.606245]], [0, [0.0242372, 1.0]], [0, [0.01151614, 1.0]], [1, [28.88080716, -0.002973], [13.19380569, 0.044202], [7.25722596, -0.232476], [4.84342676, 0.167654], [2.76949909, 0.179744], [1.50719356, 0.46058], [0.72516508, 0.338218], [0.36385743, 0.097984], [0.16204617, 0.012145], [0.07447705, -0.000948], [0.03422994, 0.000821], [0.01573221, -0.00022]], [1, [28.88080716, 0.000536], [13.19380569, -0.009363], [7.25722596, 0.054752], [4.84342676, -0.042977], [2.76949909, -0.049244], [1.50719356, -0.128712], [0.72516508, -0.11682], [0.36385743, 0.044517], [0.16204617, 0.322192], [0.07447705, 0.482878], [0.03422994, 0.275764], [0.01573221, 0.025472]], [1, [28.88080716, -0.000428], [13.19380569, 0.034429], [7.25722596, -0.307446], [4.84342676, 0.24996], [2.76949909, 0.789151], [1.50719356, 0.129313], [0.72516508, -0.921684], [0.36385743, -0.378847], [0.16204617, 0.566809], [0.07447705, 0.440905], [0.03422994, 0.024535], [0.01573221, 0.005078]], [1, [28.88080716, 0.002227], [13.19380569, 0.046024], [7.25722596, -0.727345], [4.84342676, 1.251481], [2.76949909, 1.00182], [1.50719356, -1.701806], [0.72516508, -0.622978], [0.36385743, 1.581831], [0.16204617, -0.060905], [0.07447705, -0.667464], [0.03422994, -0.031147], [0.01573221, -0.01129]], [1, [0.01573221, 1.0]], [1, [0.00723058, 1.0]], [2, [46.50908408, 0.000358], [21.60133229, -0.010512], [11.03652449, 0.11118], [4.54288797, 0.164184], [2.18180243, 0.267436], [1.04009058, 0.310836], [0.48262909, 0.28353], [0.21570372, 0.173079], [0.10059873, 0.057279], [0.04653409, 0.00937]], [2, [46.50908408, 0.000725], [21.60133229, 0.005694], [11.03652449, -0.104091], [4.54288797, -0.217444], [2.18180243, -0.413534], [1.04009058, -0.07805], [0.48262909, 0.290464], [0.21570372, 0.417258], [0.10059873, 0.237439], [0.04653409, 0.051282]], [2, [46.50908408, -0.003236], [21.60133229, 0.00626], [11.03652449, 0.082765], [4.54288797, 0.409918], [2.18180243, 0.374551], [1.04009058, -0.692379], [0.48262909, -0.433198], [0.21570372, 0.307071], [0.10059873, 0.45679], [0.04653409, 0.105679]], [2, [0.04653409, 1.0]], [2, [0.02152533, 1.0]], [3, [2.951278, 1.0]], [3, [0.820301, 1.0]], [3, [0.22800079, 1.0]], [4, [2.625115, 1.0]], [4, [0.72964472, 1.0]]]}
ecp = {'Cr': [10, [[-1, [[], [[13.07675203, 14.0]], [[15.15807582, 1258.1555038], [4.62785686, -98.60998187], [15.41136599, -6552.46055066], [15.38690637, 5353.09061557]], [[5.24897308, 183.07452839]]]], [0, [[], [], [[9.77680844, -91901.2080948], [9.95980111, 96320.14803227], [8.62275214, 3928.3135917], [12.29288144, -10977.62459544], [18.41316592, -1741.60409682], [16.38541961, 4413.26493033]], []]], [1, [[], [], [[12.00099996, -22156.17142851], [11.46524435, 21551.07876111], [16.23852226, 3703.78784703], [18.43861108, -1424.18632323], [8.88877941, -1964.93568469], [7.52644784, 317.50498882]], []]], [2, [[], [], [[11.1066837, -5435.29666496], [8.49801115, 7350.69608766], [12.28065533, 2443.80334995], [8.1885354, -5401.76770998], [14.34306836, 3881.23075486], [15.24784181, -2855.87137953]], []]]]]}
CPU time:         3.81


******** <class 'pyscf.scf.rohf.ROHF'> flags ********
method = ROHF
initial guess = minao
damping factor = 0
level shift factor = 1000.0
DIIS = <class 'pyscf.scf.diis.CDIIS'>
DIIS start cycle = 1
DIIS space = 8
SCF tol = 1e-09
SCF gradient tol = None
max. SCF cycles = 50
direct_scf = True
direct_scf_tol = 1e-13
chkfile to save SCF result = /rc_scratch/bamu3429/tmpYaNVy6
max_memory 4000 MB (current use 107 MB)
num. doubly occ = 4  num. singly occ = 6
Set gradient conv threshold to 3.16228e-05
init E= -86.2188424257299
  HOMO = 500.049856144352  LUMO = 1000.01458228077
cycle= 1 E= -86.2188424257303  delta_E= -3.41e-13  |g|= 1.54e-05  |ddm|= 7.01e-08

WARN: HOMO 0.0498561429060411 >= LUMO 0.0145822807607824

Extra cycle  E= -86.2188424236441  delta_E= 2.09e-09  |g|= 2.68e-05  |ddm|= 0.000183
converged SCF energy = -86.2188424236441
**** MO energy ****
                Roothaan           | alpha              | beta
MO #1   energy= -3.4088831549077   | -3.59479940730432  | -3.22296690312898  occ= 2
MO #2   energy= -2.10260761117261  | -2.32822678996405  | -1.87698843238116  occ= 2
MO #3   energy= -2.10260761117261  | -2.32822678996405  | -1.87698843238116  occ= 2
MO #4   energy= -2.10260761117261  | -2.32822678996405  | -1.87698843238116  occ= 2
MO #5   energy= -0.0791808510649235 | -0.225256383151866 | 0.0668937712434142 occ= 1
MO #6   energy= 0.0145822807607824 | 0.0134827356533492 | 0.0156818258682172 occ= 0
MO #7   energy= 0.0145822807607826 | 0.0134827356533493 | 0.0156818258682175 occ= 0
MO #8   energy= 0.0145822807607827 | 0.0134827356533495 | 0.0156818258682173 occ= 0
MO #9   energy= 0.0293293213081556 | 0.026714200015688  | 0.0319451190634316 occ= 0
MO #10  energy= 0.0468834176223776 | 0.0367300207904375 | 0.0570368144543144 occ= 0
MO #11  energy= 0.0468834176223786 | 0.0367300207904376 | 0.0570368144543143 occ= 0
MO #12  energy= 0.0468834176223786 | 0.0367300207904382 | 0.0570368144543145 occ= 0
MO #13  energy= 0.0498561429059701 | -0.367664473582571 | 0.467376086212149  occ= 1
MO #14  energy= 0.0498561429059725 | -0.36766447358257  | 0.467376086212146  occ= 1
MO #15  energy= 0.0498561429060362 | -0.367664473582508 | 0.467376086212217  occ= 1
MO #16  energy= 0.0498561429060389 | -0.367664473582506 | 0.467376086212216  occ= 1
MO #17  energy= 0.0498561429060411 | -0.367664473582505 | 0.467376086212218  occ= 1
MO #18  energy= 0.0665346907487264 | 0.0655811920114822 | 0.067489835202141  occ= 0
MO #19  energy= 0.0665346907487298 | 0.0655811920114818 | 0.0674898352021399 occ= 0
MO #20  energy= 0.0665346907487304 | 0.0655811920114822 | 0.0674898352021413 occ= 0
MO #21  energy= 0.0665346907487306 | 0.065581192011483  | 0.0674898352021419 occ= 0
MO #22  energy= 0.0665346907487325 | 0.0655811920114825 | 0.0674898352021412 occ= 0
MO #23  energy= 0.196240810193734  | 0.157430707077401  | 0.235050913310068  occ= 0
MO #24  energy= 0.196240810193737  | 0.157430707077404  | 0.235050913310071  occ= 0
MO #25  energy= 0.196240810193737  | 0.157430707077401  | 0.235050913310068  occ= 0
MO #26  energy= 0.217372146640419  | 0.20435705581453   | 0.230386478723655  occ= 0
MO #27  energy= 0.217372146640423  | 0.204357055814532  | 0.230386478723657  occ= 0
MO #28  energy= 0.217372146640427  | 0.204357055814533  | 0.230386478723665  occ= 0
MO #29  energy= 0.217372146640427  | 0.204357055814533  | 0.230386478723665  occ= 0
MO #30  energy= 0.217372146640431  | 0.204357055814534  | 0.230386478723667  occ= 0
MO #31  energy= 0.237813583622063  | 0.216837560638429  | 0.25878993584189   occ= 0
MO #32  energy= 0.872639585706666  | 0.844053505466764  | 0.901225665946583  occ= 0
MO #33  energy= 0.872639585706671  | 0.844053505466765  | 0.901225665946584  occ= 0
MO #34  energy= 0.872639585706672  | 0.844053505466765  | 0.901225665946583  occ= 0
MO #35  energy= 0.872639585706673  | 0.844053505466763  | 0.901225665946582  occ= 0
MO #36  energy= 0.872639585706674  | 0.844053505466764  | 0.901225665946583  occ= 0
MO #37  energy= 0.872639585706677  | 0.844053505466765  | 0.901225665946583  occ= 0
MO #38  energy= 0.872639585706679  | 0.844053505466765  | 0.901225665946584  occ= 0
MO #39  energy= 0.970016240188111  | 0.900375616506916  | 1.03965663904327   occ= 0
MO #40  energy= 0.970016240188111  | 0.900375616506917  | 1.03965663904327   occ= 0
MO #41  energy= 0.970016240188114  | 0.900375616506919  | 1.03965663904327   occ= 0
MO #42  energy= 0.970016240188164  | 0.900375616506969  | 1.03965663904333   occ= 0
MO #43  energy= 0.970016240188166  | 0.900375616506967  | 1.03965663904333   occ= 0
MO #44  energy= 1.01916790796284   | 0.978015261448635  | 1.06032044740966   occ= 0
MO #45  energy= 1.74832154119947   | 1.68360794960503   | 1.81303513279391   occ= 0
MO #46  energy= 1.74832154119947   | 1.68360794960503   | 1.81303513279391   occ= 0
MO #47  energy= 1.74832154119947   | 1.68360794960503   | 1.81303513279391   occ= 0
MO #48  energy= 2.92360704728757   | 2.83306227677675   | 3.01415181779839   occ= 0
MO #49  energy= 2.92360704728757   | 2.83306227677675   | 3.0141518177984    occ= 0
MO #50  energy= 2.92360704728758   | 2.83306227677675   | 3.0141518177984    occ= 0
MO #51  energy= 2.92360704728758   | 2.83306227677676   | 3.0141518177984    occ= 0
MO #52  energy= 2.92360704728758   | 2.83306227677676   | 3.0141518177984    occ= 0
MO #53  energy= 2.92360704728758   | 2.83306227677676   | 3.0141518177984    occ= 0
MO #54  energy= 2.92360704728758   | 2.83306227677675   | 3.0141518177984    occ= 0
MO #55  energy= 3.43697008300425   | 3.39699289151026   | 3.47694727449824   occ= 0
MO #56  energy= 3.43697008300426   | 3.39699289151027   | 3.47694727449825   occ= 0
MO #57  energy= 3.43697008300426   | 3.39699289151027   | 3.47694727449825   occ= 0
MO #58  energy= 3.43697008300426   | 3.39699289151027   | 3.47694727449824   occ= 0
MO #59  energy= 3.43697008300426   | 3.39699289151027   | 3.47694727449825   occ= 0
MO #60  energy= 3.43697008300426   | 3.39699289151027   | 3.47694727449825   occ= 0
MO #61  energy= 3.43697008300426   | 3.39699289151028   | 3.47694727449826   occ= 0
MO #62  energy= 3.43697008300427   | 3.39699289151028   | 3.47694727449826   occ= 0
MO #63  energy= 3.43697008300427   | 3.39699289151028   | 3.47694727449825   occ= 0
MO #64  energy= 3.72809999493658   | 3.63726427700176   | 3.8189357239063    occ= 0
MO #65  energy= 3.72809999493659   | 3.63726427700176   | 3.81893572390631   occ= 0
MO #66  energy= 3.72809999493663   | 3.63726427700181   | 3.81893572390636   occ= 0
MO #67  energy= 3.72809999493663   | 3.6372642770018    | 3.81893572390635   occ= 0
MO #68  energy= 3.72809999493663   | 3.6372642770018    | 3.81893572390635   occ= 0
MO #69  energy= 4.71890064813467   | 4.65490862333324   | 4.78289268470102   occ= 0
MO #70  energy= 6.76071743392042   | 6.69672999079258   | 6.82470487704826   occ= 0
MO #71  energy= 6.76071743392043   | 6.69672999079259   | 6.82470487704827   occ= 0
MO #72  energy= 6.76071743392044   | 6.69672999079262   | 6.8247048770483    occ= 0
MO #73  energy= 8.94817092806089   | 8.84323970685151   | 9.05310214927025   occ= 0
MO #74  energy= 8.94817092806089   | 8.84323970685153   | 9.05310214927027   occ= 0
MO #75  energy= 8.94817092806089   | 8.84323970685153   | 9.05310214927026   occ= 0
MO #76  energy= 8.9481709280609    | 8.84323970685153   | 9.05310214927026   occ= 0
MO #77  energy= 8.9481709280609    | 8.84323970685154   | 9.05310214927028   occ= 0
MO #78  energy= 8.94817092806091   | 8.84323970685154   | 9.05310214927028   occ= 0
MO #79  energy= 8.94817092806091   | 8.84323970685154   | 9.05310214927028   occ= 0
MO #80  energy= 11.7560106771457   | 11.6849384475931   | 11.8270829066982   occ= 0
MO #81  energy= 11.7560106771457   | 11.6849384475931   | 11.8270829066983   occ= 0
MO #82  energy= 11.7560106771457   | 11.6849384475931   | 11.8270829066983   occ= 0
MO #83  energy= 11.7560106771457   | 11.6849384475931   | 11.8270829066983   occ= 0
MO #84  energy= 11.7560106771457   | 11.6849384475931   | 11.8270829066983   occ= 0
MO #85  energy= 11.7560106771457   | 11.6849384475931   | 11.8270829066983   occ= 0
MO #86  energy= 11.7560106771457   | 11.6849384475932   | 11.8270829066983   occ= 0
MO #87  energy= 11.7560106771457   | 11.6849384475931   | 11.8270829066983   occ= 0
MO #88  energy= 11.7560106771457   | 11.6849384475931   | 11.8270829066983   occ= 0
 ** Mulliken pop on meta-lowdin orthogonal AOs  **
 ** Mulliken pop  **
pop of  0Cr 3s        1.99996
pop of  0Cr 4s        0.99848
pop of  0Cr 5s        0.00076
pop of  0Cr 6s        0.00031
pop of  0Cr 7s        0.00027
pop of  0Cr 8s        0.00022
pop of  0Cr 3px       1.99989
pop of  0Cr 3py       1.99989
pop of  0Cr 3pz       1.99989
pop of  0Cr 4px       0.00009
pop of  0Cr 4py       0.00009
pop of  0Cr 4pz       0.00009
pop of  0Cr 5px       0.00002
pop of  0Cr 5py       0.00002
pop of  0Cr 5pz       0.00002
pop of  0Cr 6px       0.00001
pop of  0Cr 6py       0.00001
pop of  0Cr 6pz       0.00001
pop of  0Cr 7px       0.00000
pop of  0Cr 7py       0.00000
pop of  0Cr 7pz       0.00000
pop of  0Cr 8px       0.00000
pop of  0Cr 8py       0.00000
pop of  0Cr 8pz       0.00000
pop of  0Cr 3dxy      0.99814
pop of  0Cr 3dyz      0.99814
pop of  0Cr 3dz^2     0.99814
pop of  0Cr 3dxz      0.99814
pop of  0Cr 3dx2-y2    0.99814
pop of  0Cr 4dxy      0.00141
pop of  0Cr 4dyz      0.00141
pop of  0Cr 4dz^2     0.00141
pop of  0Cr 4dxz      0.00141
pop of  0Cr 4dx2-y2    0.00141
pop of  0Cr 5dxy      0.00010
pop of  0Cr 5dyz      0.00010
pop of  0Cr 5dz^2     0.00010
pop of  0Cr 5dxz      0.00010
pop of  0Cr 5dx2-y2    0.00010
pop of  0Cr 6dxy      0.00033
pop of  0Cr 6dyz      0.00033
pop of  0Cr 6dz^2     0.00033
pop of  0Cr 6dxz      0.00033
pop of  0Cr 6dx2-y2    0.00033
pop of  0Cr 7dxy      0.00001
pop of  0Cr 7dyz      0.00001
pop of  0Cr 7dz^2     0.00001
pop of  0Cr 7dxz      0.00001
pop of  0Cr 7dx2-y2    0.00001
pop of  0Cr 4fy^3     0.00000
pop of  0Cr 4fxyz     0.00000
pop of  0Cr 4fyz^2    0.00000
pop of  0Cr 4fz^3     0.00000
pop of  0Cr 4fxz^2    0.00000
pop of  0Cr 4fzx^2    0.00000
pop of  0Cr 4fx^3     0.00000
pop of  0Cr 5fy^3     0.00000
pop of  0Cr 5fxyz     0.00000
pop of  0Cr 5fyz^2    0.00000
pop of  0Cr 5fz^3     0.00000
pop of  0Cr 5fxz^2    0.00000
pop of  0Cr 5fzx^2    0.00000
pop of  0Cr 5fx^3     0.00000
pop of  0Cr 6fy^3     0.00000
pop of  0Cr 6fxyz     0.00000
pop of  0Cr 6fyz^2    0.00000
pop of  0Cr 6fz^3     0.00000
pop of  0Cr 6fxz^2    0.00000
pop of  0Cr 6fzx^2    0.00000
pop of  0Cr 6fx^3     0.00000
pop of  0Cr 5g-4      0.00000
pop of  0Cr 5g-3      0.00000
pop of  0Cr 5g-2      0.00000
pop of  0Cr 5g-1      0.00000
pop of  0Cr 5g 0      0.00000
pop of  0Cr 5g 1      0.00000
pop of  0Cr 5g 2      0.00000
pop of  0Cr 5g 3      0.00000
pop of  0Cr 5g 4      0.00000
pop of  0Cr 6g-4      0.00000
pop of  0Cr 6g-3      0.00000
pop of  0Cr 6g-2      0.00000
pop of  0Cr 6g-1      0.00000
pop of  0Cr 6g 0      0.00000
pop of  0Cr 6g 1      0.00000
pop of  0Cr 6g 2      0.00000
pop of  0Cr 6g 3      0.00000
pop of  0Cr 6g 4      0.00000
 ** Mulliken atomic charges  **
charge of  0Cr =      0.00000

******** <class 'pyscf.mcscf.mc1step.CASSCF'> flags ********
CAS (6e+0e, 6o), ncore = 4, nvir = 78
max_cycle_macro = 50
max_cycle_micro = 4
conv_tol = 1e-07
conv_tol_grad = None
orbital rotation max_stepsize = 0.02
augmented hessian ah_max_cycle = 30
augmented hessian ah_conv_tol = 1e-12
augmented hessian ah_linear dependence = 1e-14
augmented hessian ah_level shift = 0
augmented hessian ah_start_tol = 2.5
augmented hessian ah_start_cycle = 3
augmented hessian ah_grad_trust_region = 3
kf_trust_region = 3
kf_interval = 4
ci_response_space = 4
ci_grad_trust_region = 3
with_dep4 0
natorb = False
canonicalization = True
sorting_mo_energy = False
chkfile = ./scratch/87363/tmpJbbL5o
max_memory 4000 MB (current use 221 MB)
internal_rotation = False

******** SHCI flags ********
executable             = /home/bamu3429/softwares/dice/Dice
mpiprefix              = srun -n20
scratchDirectory       = ./scratch/87363
integralFile           = ./FCIDUMP
configFile             = ./input.dat
outputFile             = ./output.dat
maxIter                = 6
sweep_iter             = []
sweep_epsilon          = []
nPTiter                = 0
Stochastic             = True
fullrestart            = False
restart                = False
num_thrds              = 12
memory                 = None

CASCI E = -80.806793900964  S^2 = 12.0000000
Set conv_tol_grad to 0.000316228
macro iter 1 (21 JK  4 micro), CASSCF E = -81.5965553501747  dE = -0.78976145  S^2 = 12.0000000
               |grad[o]|= 2.63  |grad[c]|= None  |ddm|=0.229
macro iter 2 (21 JK  4 micro), CASSCF E = -83.077836493164  dE = -1.4812811  S^2 = 12.0000000
               |grad[o]|= 2.46  |grad[c]|= None  |ddm|=0.0151
macro iter 3 (21 JK  4 micro), CASSCF E = -84.0300855695213  dE = -0.95224908  S^2 = 12.0000000
               |grad[o]|= 2.47  |grad[c]|= None  |ddm|=0.00543
macro iter 4 (21 JK  4 micro), CASSCF E = -84.3997043617575  dE = -0.36961879  S^2 = 12.0000000
               |grad[o]|= 1.94  |grad[c]|= None  |ddm|=0.0531
macro iter 5 (21 JK  4 micro), CASSCF E = -84.9683132577305  dE = -0.5686089  S^2 = 12.0000000
               |grad[o]|= 1.74  |grad[c]|= None  |ddm|=0.0145
macro iter 6 (21 JK  4 micro), CASSCF E = -85.4879538921405  dE = -0.51964063  S^2 = 12.0000000
               |grad[o]|= 1.36  |grad[c]|= None  |ddm|=0.00557
macro iter 7 (21 JK  4 micro), CASSCF E = -85.7332735479742  dE = -0.24531966  S^2 = 12.0000000
               |grad[o]|=0.867  |grad[c]|= None  |ddm|=0.00358
macro iter 8 (21 JK  4 micro), CASSCF E = -85.8951472881049  dE = -0.16187374  S^2 = 12.0000000
               |grad[o]|=0.595  |grad[c]|= None  |ddm|=0.00848

ERROR: srun -n20 /home/bamu3429/softwares/dice/Dice ./input.dat > ./output.dat 2>&1

