 &FCI NORB=6 ,NELEC=5 ,MS2=3,
  ORBSYM=1,1,1,1,1,1,
  ISYM=1,
 &END
  2.540602101073e-01    1  1  1  1
  1.163300142670e-11    2  1  1  1
  8.008632325080e-03    2  1  2  1
  3.223893192543e-01    2  2  1  1
  9.194405993533e-11    2  2  2  1
  7.366238205559e-01    2  2  2  2
  1.849000665380e-04    3  1  1  1
  2.455712648101e-12    3  1  2  1
  1.182127188284e-03    3  1  2  2
  7.632438735749e-03    3  1  3  1
  6.664572758820e-12    3  2  1  1
 -2.175205092170e-03    3  2  2  1
 -3.278081867327e-11    3  2  3  1
  2.916300196198e-02    3  2  3  2
  3.217046842768e-01    3  3  1  1
 -8.095400889626e-12    3  3  2  1
  6.793780188813e-01    3  3  2  2
  3.755077528276e-03    3  3  3  1
  1.459779873096e-11    3  3  3  2
  7.372176871815e-01    3  3  3  3
  3.068926357598e-12    4  1  1  1
 -1.511086001505e-10    4  1  2  2
  5.094739697811e-12    4  1  3  1
  5.425154496482e-12    4  1  3  2
 -1.657655923158e-10    4  1  3  3
  7.673362118665e-03    4  1  4  1
 -2.857416890209e-11    4  2  2  1
 -1.333581115006e-12    4  2  2  2
  5.528135615598e-12    4  2  3  1
  2.223581515611e-11    4  2  3  2
 -9.451956331278e-12    4  2  4  1
  2.856673252978e-02    4  2  4  2
  2.039369182702e-11    4  3  1  1
  6.528562407783e-12    4  3  2  1
 -1.373315737865e-11    4  3  2  2
 -4.027742151402e-11    4  3  3  1
  6.626313888300e-12    4  3  3  3
  2.523963484836e-03    4  3  4  1
  1.477510283234e-11    4  3  4  2
  2.899788829812e-02    4  3  4  3
  3.219220590690e-01    4  4  1  1
  2.643428614002e-11    4  4  2  1
  6.798379011641e-01    4  4  2  2
  5.332823536319e-03    4  4  3  1
 -3.259091707372e-11    4  4  3  2
  6.811124445834e-01    4  4  3  3
 -1.023978897741e-10    4  4  4  1
  1.389942534987e-12    4  4  4  2
  1.471184337449e-11    4  4  4  3
  7.394248882769e-01    4  4  4  4
  5.863217883334e-02    5  1  5  1
  1.610327139107e-09    5  2  5  1
  1.017452717352e-02    5  2  5  2
 -1.600725965089e-02    5  3  5  1
 -3.713677210703e-10    5  3  5  2
  9.838819529598e-03    5  3  5  3
 -1.170786825136e-10    5  4  5  1
 -5.161302334995e-12    5  4  5  2
  6.071565193295e-11    5  4  5  3
  1.697081359514e-03    5  4  5  4
  2.503976948524e-01    5  5  1  1
  8.825440395816e-10    5  5  2  1
  3.153732140380e-01    5  5  2  2
 -7.894311751235e-03    5  5  3  1
 -5.988271408626e-10    5  5  3  2
  3.148308165474e-01    5  5  3  3
 -8.639620058020e-11    5  5  4  1
 -8.451242222753e-12    5  5  4  2
  9.385204235473e-11    5  5  4  3
  3.024034388409e-01    5  5  4  4
  2.678995433751e-01    5  5  5  5
  3.467377454462e-11    6  1  5  1
  1.648154768668e-02    6  1  5  2
  8.733854734460e-10    6  1  5  3
 -9.377118784740e-12    6  1  5  4
  5.918615021710e-02    6  1  6  1
  1.634981609116e-02    6  2  5  1
  6.140484034926e-11    6  2  5  2
 -6.561811002217e-03    6  2  5  3
  7.784545797644e-12    6  2  5  4
 -1.480891087890e-09    6  2  6  1
  9.962779074596e-03    6  2  6  2
  8.267097589317e-10    6  3  5  1
 -1.878643051540e-03    6  3  5  2
 -4.352221898334e-10    6  3  5  3
  3.636937946241e-12    6  3  5  4
 -4.347052738158e-04    6  3  6  1
  4.434088569239e-10    6  3  6  2
  1.751538348988e-03    6  3  6  3
 -9.135800875203e-12    6  4  5  1
  2.009609690258e-10    6  4  5  2
  1.349757475037e-11    6  4  5  3
  3.811565305790e-10    6  4  5  4
  1.080301429358e-09    6  4  6  1
  2.282698806434e-10    6  4  6  3
  9.555142342243e-03    6  4  6  4
  5.042076817315e-12    6  5  1  1
  8.858654631406e-03    6  5  2  1
  6.263945389891e-11    6  5  2  2
  4.550468051947e-10    6  5  3  1
 -6.622414283140e-03    6  5  3  2
 -7.211499056638e-10    6  5  3  3
 -4.803519380475e-12    6  5  4  1
  1.639142642009e-10    6  5  4  2
  1.294715137832e-11    6  5  4  3
  5.769570240297e-10    6  5  4  4
  6.310168156409e-11    6  5  5  5
  1.692217223303e-02    6  5  6  5
  2.499945531611e-01    6  6  1  1
 -7.960593857966e-10    6  6  2  1
  3.131254152011e-01    6  6  2  2
  3.794816302161e-04    6  6  3  1
  7.001024279030e-10    6  6  3  2
  3.008258290977e-01    6  6  3  3
  5.630907820694e-10    6  6  4  1
  3.590168936702e-10    6  6  4  3
  3.130531291694e-01    6  6  4  4
  2.361639453189e-01    6  6  5  5
 -1.339561672246e-10    6  6  6  5
  2.649546697785e-01    6  6  6  6
 -1.439092452314e+00    1  1  0  0
 -1.017432205489e-10    2  1  0  0
 -2.439048826541e+00    2  2  0  0
 -7.861570589332e-03    3  1  0  0
 -1.158522553174e-11    3  2  0  0
 -2.439991790300e+00    3  3  0  0
  2.941733738691e-10    4  1  0  0
 -2.980524486893e-11    4  3  0  0
 -2.441698580024e+00    4  4  0  0
 -1.270939957955e+00    5  5  0  0
  1.015062589800e-10    6  5  0  0
 -1.266060706572e+00    6  6  0  0
    -64.612149752860   0  0  0  0
