#INFO: **** input file is /projects/bamu3429/BENCHMARK/fresh_atoms/MRPT/vtz/atoms/V_0/mrpt.py ****
import json
from pyscf import gto,scf,mcscf, fci, lo, ci, cc
from pyscf.scf import ROHF, UHF,ROKS
import numpy as np
import pandas as pd

# THIS IS WERE IT STARTS ====================================

df=json.load(open("../../../trail.json"))

spins={'Sc':1, 'Ti':2, 'V':3, 'Cr':6, 'Mn':5, 'Fe':4, 'Cu':1}

nd={'Sc':(1,0), 'Ti':(2,0), 'V':(3,0), 'Cr':(5,0), 'Mn':(5,0), 'Fe':(5,1), 'Cu':(5,5)}

cas={'Sc':3, 'Ti':4, 'V':5, 'Cr':6, 'Mn':7, 'Fe':8, 'Cu':11}

datacsv={}
for nm in ['atom','charge','method','basis','pseudopotential','hf',
           'totalenergy','totalenergy-stocherr','totalenergy-syserr']:
  datacsv[nm]=[]

basis='vtz'
el='V'
charge=0

mol=gto.Mole()
mol.ecp={}
mol.basis={}
mol.ecp[el]=gto.basis.parse_ecp(df[el]['ecp'])
mol.basis[el]=gto.basis.parse(df[el][basis])
mol.charge=charge
if el == 'Cr' or el == 'Cu':
  mol.spin=spins[el]-charge
else:
  mol.spin=spins[el]+charge
mol.build(atom="%s 0. 0. 0."%el,verbose=4)

m=ROHF(mol)
m.level_shift=1000.0
dm=m.from_chk("../../../../HF/atoms/"+el+basis+str(charge)+".chk")
hf=m.kernel(dm)
m.analyze()

from pyscf.shciscf import shci
mc = shci.SHCISCF(m, 6, cas[el]-charge)
#mc.fcisolver.conv_tol = 1e-14
mc.fcisolver.mpiprefix="mpirun -np 28"
mc.fcisolver.num_thrds=12
mc.verbose = 4
cas=mc.kernel()[0]
 
from pyscf.icmpspt import icmpspt
pt=icmpspt.icmpspt(mc,rdmM=500, PTM=1000,\
                          pttype="MRLCC",\
                          third_order=True,\
                          fully_ic=True,\
                          do_dm4=True)

datacsv['atom'].append(el)
datacsv['charge'].append(charge)
datacsv['method'].append('MRPT')
datacsv['basis'].append(basis)
datacsv['pseudopotential'].append('trail')
datacsv['hf'].append(hf)
datacsv['totalenergy'].append(cas+pt)
datacsv['totalenergy-stocherr'].append(0.0)
datacsv['totalenergy-syserr'].append(0.0)
pd.DataFrame(datacsv).to_csv(el+".csv",index=False)

#INFO: ******************** input file end ********************


System: ('Linux', 'bnode0304.rc.int.colorado.edu', '3.10.0-514.41.1.el7.x86_64', '#1 SMP Wed Jan 17 10:26:16 EST 2018', 'x86_64', 'x86_64')  Threads 28
Python 2.7.11 (default, Mar 22 2016, 01:42:54) 
[GCC Intel(R) C++ gcc 4.8 mode]
numpy 1.11.1  scipy 0.17.1
Date: Thu Mar 29 15:14:31 2018
PySCF version 1.4
PySCF path  /projects/bamu3429/softwares/pyscf_uptodate/pyscf
GIT ORIG_HEAD e2292e6edec2b0e0024c21b81de03db1d7bd4121
GIT HEAD      ref: refs/heads/master
GIT master branch  f3591ef22170896a4cdc2aadaa6f5da388ffcadb

[INPUT] VERBOSE 4
[INPUT] num atoms = 1
[INPUT] num electrons = 13
[INPUT] charge = 0
[INPUT] spin (= nelec alpha-beta = 2S) = 3
[INPUT] symmetry False subgroup None
[INPUT]  1 V      0.000000000000   0.000000000000   0.000000000000 AA    0.000000000000   0.000000000000   0.000000000000 Bohr
[INPUT] ---------------- BASIS SET ---------------- 
[INPUT] l, kappa, [nprim/nctr], expnt,             c_1 c_2 ...
[INPUT] V
[INPUT] 0    0    [12   /1   ]  33.51168105       0.006845
                                15.38532624       -0.214557
                                9.96227367        1.392425
                                8.05943355        -1.485929
                                3.6960334         -0.026725
                                1.49220279        0.457681
                                0.84622253        0.506886
                                0.43855031        0.249453
                                0.2102388         0.007109
                                0.1022422         0.007055
                                0.04832462        -0.000443
                                0.02406855        0.001278
[INPUT] 0    0    [12   /1   ]  33.51168105       -0.001211
                                15.38532624       0.04697
                                9.96227367        -0.329808
                                8.05943355        0.363635
                                3.6960334         0.005985
                                1.49220279        -0.140857
                                0.84622253        -0.203846
                                0.43855031        -0.200776
                                0.2102388         0.022081
                                0.1022422         0.429765
                                0.04832462        0.534383
                                0.02406855        0.187984
[INPUT] 0    0    [12   /1   ]  33.51168105       -0.007111
                                15.38532624       0.233807
                                9.96227367        -1.69649
                                8.05943355        1.967562
                                3.6960334         -0.221986
                                1.49220279        -1.566848
                                0.84622253        0.314532
                                0.43855031        0.552762
                                0.2102388         0.87483
                                0.1022422         0.073061
                                0.04832462        -0.50294
                                0.02406855        -0.328304
[INPUT] 0    0    [12   /1   ]  33.51168105       -0.013861
                                15.38532624       0.372746
                                9.96227367        -2.690047
                                8.05943355        3.225629
                                3.6960334         -0.892796
                                1.49220279        -2.437526
                                0.84622253        2.347767
                                0.43855031        1.223514
                                0.2102388         -1.131537
                                0.1022422         -1.231287
                                0.04832462        0.586808
                                0.02406855        0.648032
[INPUT] 0    0    [1    /1   ]  0.02406855           1
[INPUT] 0    0    [1    /1   ]  0.01198757           1
[INPUT] 1    0    [12   /1   ]  49.83779697       0.000413
                                25.60370921       -0.003442
                                10.40982442       0.097153
                                7.71483683        -0.206888
                                4.49868206        0.083281
                                2.48212838        0.186621
                                1.4387019         0.395144
                                0.72090362        0.377883
                                0.3443302         0.134629
                                0.13162828        0.011074
                                0.05284968        -0.000426
                                0.02121951        0.000256
[INPUT] 1    0    [12   /1   ]  49.83779697       -2.9e-05
                                25.60370921       0.000502
                                10.40982442       -0.020934
                                7.71483683        0.047431
                                4.49868206        -0.020701
                                2.48212838        -0.057583
                                1.4387019         -0.106451
                                0.72090362        -0.140229
                                0.3443302         0.043257
                                0.13162828        0.438687
                                0.05284968        0.536785
                                0.02121951        0.12546
[INPUT] 1    0    [12   /1   ]  49.83779697       4.2e-05
                                25.60370921       -0.00212
                                10.40982442       0.123342
                                7.71483683        -0.318471
                                4.49868206        0.188642
                                2.48212838        0.726079
                                1.4387019         0.273545
                                0.72090362        -0.906715
                                0.3443302         -0.478781
                                0.13162828        0.723888
                                0.05284968        0.310191
                                0.02121951        -0.00813
[INPUT] 1    0    [12   /1   ]  49.83779697       0.000299
                                25.60370921       0.000309
                                10.40982442       -0.131422
                                7.71483683        0.419354
                                4.49868206        -0.585162
                                2.48212838        -0.699409
                                1.4387019         0.95299
                                0.72090362        0.532068
                                0.3443302         -0.999183
                                0.13162828        0.152364
                                0.05284968        0.334676
                                0.02121951        -0.023213
[INPUT] 1    0    [1    /1   ]  0.02121951           1
[INPUT] 1    0    [1    /1   ]  0.00851977           1
[INPUT] 2    0    [10   /1   ]  34.27504048       0.000678
                                16.12418185       -0.017858
                                9.59474528        0.107867
                                3.8690861         0.173949
                                1.82728072        0.26883
                                0.85799457        0.321303
                                0.38035078        0.300128
                                0.15533087        0.170792
                                0.06318167        0.035148
                                0.03734397        0.003549
[INPUT] 2    0    [10   /1   ]  34.27504048       0.000584
                                16.12418185       0.010634
                                9.59474528        -0.094271
                                3.8690861         -0.228668
                                1.82728072        -0.397823
                                0.85799457        -0.076182
                                0.38035078        0.313255
                                0.15533087        0.472762
                                0.06318167        0.196314
                                0.03734397        0.015996
[INPUT] 2    0    [10   /1   ]  34.27504048       0.003588
                                16.12418185       -0.007285
                                9.59474528        -0.060176
                                3.8690861         -0.418946
                                1.82728072        -0.38644
                                0.85799457        0.691971
                                0.38035078        0.444732
                                0.15533087        -0.454572
                                0.06318167        -0.39879
                                0.03734397        -0.019185
[INPUT] 2    0    [1    /1   ]  0.03734397           1
[INPUT] 2    0    [1    /1   ]  0.02207241           1
[INPUT] 3    0    [1    /1   ]  2.578583             1
[INPUT] 3    0    [1    /1   ]  0.725076             1
[INPUT] 3    0    [1    /1   ]  0.2038853            1
[INPUT] 4    0    [1    /1   ]  2.326339             1
[INPUT] 4    0    [1    /1   ]  0.65414707           1
nuclear repulsion = 0
number of shells = 22
number of NR pGTOs = 399
number of NR cGTOs = 88
basis = {'V': [[0, [33.51168105, 0.006845], [15.38532624, -0.214557], [9.96227367, 1.392425], [8.05943355, -1.485929], [3.6960334, -0.026725], [1.49220279, 0.457681], [0.84622253, 0.506886], [0.43855031, 0.249453], [0.2102388, 0.007109], [0.1022422, 0.007055], [0.04832462, -0.000443], [0.02406855, 0.001278]], [0, [33.51168105, -0.001211], [15.38532624, 0.04697], [9.96227367, -0.329808], [8.05943355, 0.363635], [3.6960334, 0.005985], [1.49220279, -0.140857], [0.84622253, -0.203846], [0.43855031, -0.200776], [0.2102388, 0.022081], [0.1022422, 0.429765], [0.04832462, 0.534383], [0.02406855, 0.187984]], [0, [33.51168105, -0.007111], [15.38532624, 0.233807], [9.96227367, -1.69649], [8.05943355, 1.967562], [3.6960334, -0.221986], [1.49220279, -1.566848], [0.84622253, 0.314532], [0.43855031, 0.552762], [0.2102388, 0.87483], [0.1022422, 0.073061], [0.04832462, -0.50294], [0.02406855, -0.328304]], [0, [33.51168105, -0.013861], [15.38532624, 0.372746], [9.96227367, -2.690047], [8.05943355, 3.225629], [3.6960334, -0.892796], [1.49220279, -2.437526], [0.84622253, 2.347767], [0.43855031, 1.223514], [0.2102388, -1.131537], [0.1022422, -1.231287], [0.04832462, 0.586808], [0.02406855, 0.648032]], [0, [0.02406855, 1.0]], [0, [0.01198757, 1.0]], [1, [49.83779697, 0.000413], [25.60370921, -0.003442], [10.40982442, 0.097153], [7.71483683, -0.206888], [4.49868206, 0.083281], [2.48212838, 0.186621], [1.4387019, 0.395144], [0.72090362, 0.377883], [0.3443302, 0.134629], [0.13162828, 0.011074], [0.05284968, -0.000426], [0.02121951, 0.000256]], [1, [49.83779697, -2.9e-05], [25.60370921, 0.000502], [10.40982442, -0.020934], [7.71483683, 0.047431], [4.49868206, -0.020701], [2.48212838, -0.057583], [1.4387019, -0.106451], [0.72090362, -0.140229], [0.3443302, 0.043257], [0.13162828, 0.438687], [0.05284968, 0.536785], [0.02121951, 0.12546]], [1, [49.83779697, 4.2e-05], [25.60370921, -0.00212], [10.40982442, 0.123342], [7.71483683, -0.318471], [4.49868206, 0.188642], [2.48212838, 0.726079], [1.4387019, 0.273545], [0.72090362, -0.906715], [0.3443302, -0.478781], [0.13162828, 0.723888], [0.05284968, 0.310191], [0.02121951, -0.00813]], [1, [49.83779697, 0.000299], [25.60370921, 0.000309], [10.40982442, -0.131422], [7.71483683, 0.419354], [4.49868206, -0.585162], [2.48212838, -0.699409], [1.4387019, 0.95299], [0.72090362, 0.532068], [0.3443302, -0.999183], [0.13162828, 0.152364], [0.05284968, 0.334676], [0.02121951, -0.023213]], [1, [0.02121951, 1.0]], [1, [0.00851977, 1.0]], [2, [34.27504048, 0.000678], [16.12418185, -0.017858], [9.59474528, 0.107867], [3.8690861, 0.173949], [1.82728072, 0.26883], [0.85799457, 0.321303], [0.38035078, 0.300128], [0.15533087, 0.170792], [0.06318167, 0.035148], [0.03734397, 0.003549]], [2, [34.27504048, 0.000584], [16.12418185, 0.010634], [9.59474528, -0.094271], [3.8690861, -0.228668], [1.82728072, -0.397823], [0.85799457, -0.076182], [0.38035078, 0.313255], [0.15533087, 0.472762], [0.06318167, 0.196314], [0.03734397, 0.015996]], [2, [34.27504048, 0.003588], [16.12418185, -0.007285], [9.59474528, -0.060176], [3.8690861, -0.418946], [1.82728072, -0.38644], [0.85799457, 0.691971], [0.38035078, 0.444732], [0.15533087, -0.454572], [0.06318167, -0.39879], [0.03734397, -0.019185]], [2, [0.03734397, 1.0]], [2, [0.02207241, 1.0]], [3, [2.578583, 1.0]], [3, [0.725076, 1.0]], [3, [0.2038853, 1.0]], [4, [2.326339, 1.0]], [4, [0.65414707, 1.0]]]}
ecp = {'V': [10, [[-1, [[], [[8.85341849, 13.0]], [[14.12393489, 1867.96836466], [10.01469125, -417.2185296], [16.87739786, -6735.41034163], [17.42661229, 5248.9519915]], [[8.14766139, 115.09444037]]]], [0, [[], [], [[10.17161428, 8429.89768085], [6.62108601, -4738.0869454], [6.4407206, 3874.69004628], [11.26222343, -9817.80452096], [19.82459033, -286.16022228], [14.35299938, 2571.80634504]], []]], [1, [[], [], [[10.25117807, 40641.17869487], [10.49106006, -41559.00487832], [13.7869188, 3357.33248976], [16.29479305, -896.47755921], [7.79003518, -1904.45864373], [6.62830213, 382.3757783]], []]], [2, [[], [], [[8.601477, 4615.05527413], [10.66674565, -3671.60281242], [15.19026557, 4480.50015686], [8.06189603, -2591.12632756], [19.82232597, 2587.18683714], [18.22318105, -5431.92186158]], []]]]]}
CPU time:         3.56


******** <class 'pyscf.scf.rohf.ROHF'> flags ********
method = ROHF
initial guess = minao
damping factor = 0
level shift factor = 1000.0
DIIS = <class 'pyscf.scf.diis.CDIIS'>
DIIS start cycle = 1
DIIS space = 8
SCF tol = 1e-09
SCF gradient tol = None
max. SCF cycles = 50
direct_scf = True
direct_scf_tol = 1e-13
chkfile to save SCF result = /projects/bamu3429/BENCHMARK/fresh_atoms/MRPT/vtz/atoms/V_0/tmpS3N3I8
max_memory 4000 MB (current use 170 MB)
num. doubly occ = 5  num. singly occ = 3
Set gradient conv threshold to 3.16228e-05
init E= -70.6954472121378
  HOMO = 499.892475319305  LUMO = 1000.01373849872
cycle= 1 E= -70.6954472121377  delta_E= 1.42e-14  |g|= 5.17e-06  |ddm|= 1.63e-08
  HOMO = -0.107524681756974  LUMO = 0.0137384987243141
Extra cycle  E= -70.6954472121429  delta_E= -5.2e-12  |g|= 2.07e-06  |ddm|= 1.53e-05
converged SCF energy = -70.6954472121429
**** MO energy ****
                Roothaan           | alpha              | beta
MO #1   energy= -3.22343585860621  | -3.33555122647687  | -3.11132049073555  occ= 2
MO #2   energy= -2.03295858331653  | -2.17093080722683  | -1.89498635940624  occ= 2
MO #3   energy= -2.03295852091641  | -2.1709310341471   | -1.89498600768573  occ= 2
MO #4   energy= -2.03295850516544  | -2.17093130481242  | -1.89498570551845  occ= 2
MO #5   energy= -0.232239098841439 | -0.243628882682732 | -0.220849315000142 occ= 2
MO #6   energy= -0.107524975865531 | -0.506215663263974 | 0.291165333073119  occ= 1
MO #7   energy= -0.107524838086592 | -0.506215446062111 | 0.291165402813314  occ= 1
MO #8   energy= -0.107524681756974 | -0.506215232455273 | 0.291165500485181  occ= 1
MO #9   energy= 0.0137384987243141 | 0.0130166262292889 | 0.0144603712193383 occ= 0
MO #10  energy= 0.0137385070596062 | 0.0130166336083076 | 0.0144603805109047 occ= 0
MO #11  energy= 0.0137385079503289 | 0.0130166335871187 | 0.0144603823135398 occ= 0
MO #12  energy= 0.0267137042878502 | 0.0261250028875362 | 0.0273024056881684 occ= 0
MO #13  energy= 0.0422284928970119 | 0.04007131676896   | 0.0443856690250628 occ= 0
MO #14  energy= 0.0422285089136664 | 0.0400713272689925 | 0.0443856905583402 occ= 0
MO #15  energy= 0.0422285174681792 | 0.0400713311048531 | 0.0443857038315058 occ= 0
MO #16  energy= 0.061486451016399  | 0.0612022541879791 | 0.061770647844818  occ= 0
MO #17  energy= 0.0614864577638501 | 0.0612022610480931 | 0.0617706544796076 occ= 0
MO #18  energy= 0.0629450180680618 | 0.0627388301106183 | 0.0631512944563219 occ= 0
MO #19  energy= 0.0629450218517476 | 0.0627388340893807 | 0.0631512982886116 occ= 0
MO #20  energy= 0.062945023690957  | 0.0627388356541734 | 0.0631513001105694 occ= 0
MO #21  energy= 0.132835336780908  | 0.121111929157092  | 0.144558744404735  occ= 0
MO #22  energy= 0.132835352566017  | 0.121111944371928  | 0.144558760760046  occ= 0
MO #23  energy= 0.17930783296134   | 0.175701016002909  | 0.182914730804732  occ= 0
MO #24  energy= 0.179307835750553  | 0.175701021062986  | 0.182914733556502  occ= 0
MO #25  energy= 0.17930785554465   | 0.175701037027114  | 0.182914754669231  occ= 0
MO #26  energy= 0.181809331566423  | 0.17371169613076   | 0.189906967002085  occ= 0
MO #27  energy= 0.181809369927988  | 0.173711715126977  | 0.189907024728998  occ= 0
MO #28  energy= 0.181809390760263  | 0.173711716301141  | 0.189907065219386  occ= 0
MO #29  energy= 0.205979050904265  | 0.200307825979435  | 0.211650275829104  occ= 0
MO #30  energy= 0.232043639113534  | 0.214233081135065  | 0.249854197092002  occ= 0
MO #31  energy= 0.23204365678245   | 0.214233098860391  | 0.249854214704476  occ= 0
MO #32  energy= 0.712534411693866  | 0.673957280740969  | 0.751111762713732  occ= 0
MO #33  energy= 0.71253445706519   | 0.673957318474355  | 0.751111808457063  occ= 0
MO #34  energy= 0.712534545439412  | 0.673957403678173  | 0.751111900943675  occ= 0
MO #35  energy= 0.739143230710933  | 0.724434681491665  | 0.753851779930202  occ= 0
MO #36  energy= 0.740013829329202  | 0.729982264904574  | 0.750045393753829  occ= 0
MO #37  energy= 0.740013848231803  | 0.72998225456364   | 0.750045441899968  occ= 0
MO #38  energy= 0.740013867061237  | 0.729982243632941  | 0.750045490489531  occ= 0
MO #39  energy= 0.740613474392632  | 0.734191638370605  | 0.747035310414662  occ= 0
MO #40  energy= 0.740613479098851  | 0.73419160730041   | 0.747035350897293  occ= 0
MO #41  energy= 0.740613512961166  | 0.734191659373717  | 0.747035366548613  occ= 0
MO #42  energy= 0.771343223222785  | 0.755931940839691  | 0.786754505605877  occ= 0
MO #43  energy= 0.771343255787184  | 0.755931974015897  | 0.786754537558507  occ= 0
MO #44  energy= 0.933219098468133  | 0.915869776839607  | 0.95056842009668   occ= 0
MO #45  energy= 1.53807928314105   | 1.50587946249807   | 1.57027910378404   occ= 0
MO #46  energy= 1.53807942714223   | 1.50587954403047   | 1.570279310254     occ= 0
MO #47  energy= 1.53807950269864   | 1.50587955705018   | 1.5702794483471    occ= 0
MO #48  energy= 2.46849162703785   | 2.38740884744511   | 2.54957440663059   occ= 0
MO #49  energy= 2.477267101661     | 2.42129267440845   | 2.53324152891354   occ= 0
MO #50  energy= 2.4772671332101    | 2.42129255718077   | 2.53324170923944   occ= 0
MO #51  energy= 2.47726716547274   | 2.42129244125408   | 2.5332418896914    occ= 0
MO #52  energy= 2.48384068793785   | 2.4477245528368    | 2.51995682303888   occ= 0
MO #53  energy= 2.48384072274994   | 2.44772479236244   | 2.51995665313745   occ= 0
MO #54  energy= 2.48384073742086   | 2.44772470465193   | 2.5199567701898    occ= 0
MO #55  energy= 2.96656181374323   | 2.95295875168508   | 2.98016487580136   occ= 0
MO #56  energy= 2.96840485955578   | 2.95166510340232   | 2.98514461570922   occ= 0
MO #57  energy= 2.96840491102632   | 2.95166514939083   | 2.9851446726618    occ= 0
MO #58  energy= 2.96840493526746   | 2.95166518612229   | 2.98514468441261   occ= 0
MO #59  energy= 2.96958110954038   | 2.95113802014897   | 2.98802419893181   occ= 0
MO #60  energy= 2.96958113123628   | 2.95113804667223   | 2.98802421580032   occ= 0
MO #61  energy= 2.97340465134384   | 2.94754477150552   | 2.9992645300592    occ= 0
MO #62  energy= 2.97340469936326   | 2.94754478332195   | 2.99926461398734   occ= 0
MO #63  energy= 2.97340471757217   | 2.94754477349744   | 2.99926466035017   occ= 0
MO #64  energy= 2.99032521215613   | 2.9147481459567    | 3.06590226495693   occ= 0
MO #65  energy= 2.99032533060192   | 2.91474829375578   | 3.06590235272847   occ= 0
MO #66  energy= 2.99032545497777   | 2.91474843688918   | 3.06590245903919   occ= 0
MO #67  energy= 3.02478903784262   | 3.0042811075035    | 3.04529696818174   occ= 0
MO #68  energy= 3.02478904743999   | 3.0042811216855    | 3.04529697319448   occ= 0
MO #69  energy= 4.18546209205708   | 4.15055322595706   | 4.22037095815711   occ= 0
MO #70  energy= 6.07808738760443   | 6.04128728133958   | 6.11488749386929   occ= 0
MO #71  energy= 6.07808755784058   | 6.04128738442543   | 6.11488773125572   occ= 0
MO #72  energy= 6.0780877032505    | 6.04128746322647   | 6.11488794327453   occ= 0
MO #73  energy= 7.8176020899461    | 7.71615969382996   | 7.91904448606222   occ= 0
MO #74  energy= 7.82288763671542   | 7.75178451869852   | 7.89399075473233   occ= 0
MO #75  energy= 7.82288773218006   | 7.75178443883897   | 7.89399102552115   occ= 0
MO #76  energy= 7.82288782883516   | 7.75178436301545   | 7.89399129465485   occ= 0
MO #77  energy= 7.82692623071319   | 7.78002593217728   | 7.87382652924911   occ= 0
MO #78  energy= 7.82692623073713   | 7.7800260610422    | 7.87382640043205   occ= 0
MO #79  energy= 7.82692623829538   | 7.78002581153648   | 7.87382666505426   occ= 0
MO #80  energy= 10.3130470250251   | 10.2830775486138   | 10.3430165014365   occ= 0
MO #81  energy= 10.3169618662341   | 10.2800553935037   | 10.3538683389645   occ= 0
MO #82  energy= 10.3169618860942   | 10.2800554313249   | 10.3538683408635   occ= 0
MO #83  energy= 10.3169619093124   | 10.2800554712366   | 10.3538683473881   occ= 0
MO #84  energy= 10.3197709507219   | 10.277967239799    | 10.3615746616448   occ= 0
MO #85  energy= 10.3197709514296   | 10.2779672399257   | 10.3615746629335   occ= 0
MO #86  energy= 10.328006903384    | 10.2710093833578   | 10.3850044245318   occ= 0
MO #87  energy= 10.328006987568    | 10.2710094202999   | 10.3850045559316   occ= 0
MO #88  energy= 10.32800707086     | 10.271009456176    | 10.3850046865912   occ= 0
 ** Mulliken pop on meta-lowdin orthogonal AOs  **
 ** Mulliken pop  **
pop of  0V 3s        1.99995
pop of  0V 4s        1.99919
pop of  0V 5s        0.00047
pop of  0V 6s        0.00017
pop of  0V 7s        0.00014
pop of  0V 8s        0.00008
pop of  0V 3px       1.99969
pop of  0V 3py       1.99969
pop of  0V 3pz       1.99969
pop of  0V 4px       0.00010
pop of  0V 4py       0.00010
pop of  0V 4pz       0.00010
pop of  0V 5px       0.00002
pop of  0V 5py       0.00002
pop of  0V 5pz       0.00002
pop of  0V 6px       0.00001
pop of  0V 6py       0.00001
pop of  0V 6pz       0.00001
pop of  0V 7px       0.00000
pop of  0V 7py       0.00000
pop of  0V 7pz       0.00000
pop of  0V 8px       0.00000
pop of  0V 8py       0.00000
pop of  0V 8pz       0.00000
pop of  0V 3dxy      0.99549
pop of  0V 3dyz      0.99549
pop of  0V 3dz^2     0.74662
pop of  0V 3dxz      0.00000
pop of  0V 3dx2-y2    0.24887
pop of  0V 4dxy      0.00361
pop of  0V 4dyz      0.00361
pop of  0V 4dz^2     0.00271
pop of  0V 4dxz      0.00000
pop of  0V 4dx2-y2    0.00090
pop of  0V 5dxy      0.00023
pop of  0V 5dyz      0.00023
pop of  0V 5dz^2     0.00018
pop of  0V 5dxz      0.00000
pop of  0V 5dx2-y2    0.00006
pop of  0V 6dxy      0.00059
pop of  0V 6dyz      0.00059
pop of  0V 6dz^2     0.00044
pop of  0V 6dxz      0.00000
pop of  0V 6dx2-y2    0.00015
pop of  0V 7dxy      0.00006
pop of  0V 7dyz      0.00006
pop of  0V 7dz^2     0.00005
pop of  0V 7dxz      0.00000
pop of  0V 7dx2-y2    0.00002
pop of  0V 4fy^3     0.00004
pop of  0V 4fxyz     0.00000
pop of  0V 4fyz^2    0.00002
pop of  0V 4fz^3     0.00000
pop of  0V 4fxz^2    0.00005
pop of  0V 4fzx^2    0.00005
pop of  0V 4fx^3     0.00001
pop of  0V 5fy^3     0.00006
pop of  0V 5fxyz     0.00000
pop of  0V 5fyz^2    0.00004
pop of  0V 5fz^3     0.00001
pop of  0V 5fxz^2    0.00009
pop of  0V 5fzx^2    0.00010
pop of  0V 5fx^3     0.00002
pop of  0V 6fy^3     0.00001
pop of  0V 6fxyz     0.00000
pop of  0V 6fyz^2    0.00001
pop of  0V 6fz^3     0.00000
pop of  0V 6fxz^2    0.00001
pop of  0V 6fzx^2    0.00002
pop of  0V 6fx^3     0.00000
pop of  0V 5g-4      0.00000
pop of  0V 5g-3      0.00000
pop of  0V 5g-2      0.00000
pop of  0V 5g-1      0.00000
pop of  0V 5g 0      0.00000
pop of  0V 5g 1      0.00000
pop of  0V 5g 2      0.00000
pop of  0V 5g 3      0.00000
pop of  0V 5g 4      0.00000
pop of  0V 6g-4      0.00000
pop of  0V 6g-3      0.00000
pop of  0V 6g-2      0.00000
pop of  0V 6g-1      0.00000
pop of  0V 6g 0      0.00000
pop of  0V 6g 1      0.00000
pop of  0V 6g 2      0.00000
pop of  0V 6g 3      0.00000
pop of  0V 6g 4      0.00000
 ** Mulliken atomic charges  **
charge of  0V =     -0.00000

******** <class 'pyscf.mcscf.mc1step.CASSCF'> flags ********
CAS (4e+1e, 6o), ncore = 4, nvir = 78
max_cycle_macro = 50
max_cycle_micro = 4
conv_tol = 1e-07
conv_tol_grad = None
orbital rotation max_stepsize = 0.02
augmented hessian ah_max_cycle = 30
augmented hessian ah_conv_tol = 1e-12
augmented hessian ah_linear dependence = 1e-14
augmented hessian ah_level shift = 0
augmented hessian ah_start_tol = 2.5
augmented hessian ah_start_cycle = 3
augmented hessian ah_grad_trust_region = 3
kf_trust_region = 3
kf_interval = 4
ci_response_space = 4
ci_grad_trust_region = 3
with_dep4 0
natorb = False
canonicalization = True
chkfile = ./scratch/151631/tmpzA9IQX
max_memory 4000 MB (current use 286 MB)
internal_rotation = False

******** SHCI flags ********
executable             = /home/bamu3429/softwares/dice/Dice
mpiprefix              = mpirun -np 28
scratchDirectory       = ./scratch/151631
integralFile           = ./FCIDUMP
configFile             = ./input.dat
outputFile             = ./output.dat
maxIter                = 6
sweep_iter             = []
sweep_epsilon          = []
nPTiter                = 0
Stochastic             = True
fullrestart            = False
restart                = False
num_thrds              = 12
memory                 = None

CASCI E = -70.6958180303239  S^2 = 3.7500000
Set conv_tol_grad to 0.000316228
macro iter 1 (21 JK  4 micro), CASSCF E = -70.7014150029032  dE = -0.0055969726  S^2 = 3.7500000
               |grad[o]|=0.00146  |grad[c]|= None  |ddm|=0.0238
macro iter 2 (21 JK  4 micro), CASSCF E = -70.7143315591937  dE = -0.012916556  S^2 = 3.7500000
               |grad[o]|=0.0104  |grad[c]|= None  |ddm|=0.081
macro iter 3 (18 JK  4 micro), CASSCF E = -70.7182078187065  dE = -0.0038762595  S^2 = 3.7500000
               |grad[o]|=0.0134  |grad[c]|= None  |ddm|=0.0246
macro iter 4 (6 JK  2 micro), CASSCF E = -70.7182089043758  dE = -1.0856693e-06  S^2 = 3.7500000
               |grad[o]|=0.000279  |grad[c]|= None  |ddm|=    0
macro iter 5 (3 JK  1 micro), CASSCF E = -70.7182089058648  dE = -1.4889991e-09  S^2 = 3.7500000
               |grad[o]|=3.05e-05  |grad[c]|= None  |ddm|=    0
1-step CASSCF converged in 5 macro (69 JK 15 micro) steps
CASSCF canonicalization
CASSCF energy = -70.7182089058648


--------------------------------------------------
                 ICMPSPT CALCULATION              
--------------------------------------------------

Perturbation type: MRLCC
With fully internally contracted scheme
With third order correction

Preparing necessary RDMs
......production of RDMs took       1.35 sec
Reading binary 4RDM from DICE
......reading the RDM took          1.03 sec

(GOOD) Trace 4RDM:    120.0 =    5*    4*    3*    2
(GOOD) Trace 3RDM:     60.0 =    5*    4*    3
(GOOD) Trace 2RDM:     20.0 =    5*    4
(GOOD) Trace 1RDM:      5.0 =    5

Producing the integrals
......production of INT took      90.47 sec

Energy_core =  -64.6121497529
Energy      =  -70.7182089059

WARNING: Have to use natural orbitals from CAASCF
         offdiagonal elements: 0.769102427995

Basic ingredients written to int/
......savings of INGREDIENTS took      17.79 sec

Second-order:
perturber CCVV --        -0.158306207
perturber CCAV --        -0.068757277
perturber ACVV --        -0.137977831
perturber CCAA --        -0.006325794
perturber AAVV --        -0.046140264
perturber CAAV --        -0.059225501
perturber AAAV --        -0.009254331
perturber AAAC --        -0.002749476
Total:                   -0.488736682

Third-order:             -0.000706333

Total PT       --        -0.489443015

