 &FCI NORB=6 ,NELEC=4 ,MS2=2,
  ORBSYM=1,1,1,1,1,1,
  ISYM=1,
 &END
  2.453735719770e-01    1  1  1  1
  8.558579120884e-03    2  1  2  1
  3.072720714778e-01    2  2  1  1
  6.584301792310e-01    2  2  2  2
  8.558579120884e-03    3  1  3  1
  2.557584356564e-02    3  2  3  2
  3.072720714778e-01    3  3  1  1
  6.072784921001e-01    3  3  2  2
  6.584301792310e-01    3  3  3  3
  5.697882437955e-02    4  1  4  1
  1.008286958213e-02    4  2  4  2
 -3.452374274583e-03    4  3  4  2
  3.440340160239e-03    4  3  4  3
  2.422261168906e-01    4  4  1  1
  3.005580774458e-01    4  4  2  2
 -4.806513570984e-03    4  4  3  2
  2.913101256561e-01    4  4  3  3
  2.586538864904e-01    4  4  4  4
  5.697882437955e-02    5  1  5  1
  3.452374274583e-03    5  2  4  2
  5.017031790542e-04    5  2  4  3
  3.440340160239e-03    5  2  5  2
  6.140826244361e-03    5  3  4  2
 -3.452374274583e-03    5  3  4  3
  3.452374274583e-03    5  3  5  2
  1.008286958213e-02    5  3  5  3
  4.806513570984e-03    5  4  2  2
  4.623975897929e-03    5  4  3  2
 -4.806513570984e-03    5  4  3  3
 -5.399023471375e-12    5  4  4  4
  1.529085303097e-02    5  4  5  4
  2.422261168906e-01    5  5  1  1
  2.913101256561e-01    5  5  2  2
  4.806513570984e-03    5  5  3  2
  3.005580774458e-01    5  5  3  3
  2.280721804492e-01    5  5  4  4
  5.399598221627e-12    5  5  5  4
  2.586538864904e-01    5  5  5  5
  1.649840479755e-02    6  1  4  2
 -7.021662399767e-03    6  1  4  3
  7.021662399767e-03    6  1  5  2
  1.649840479754e-02    6  1  5  3
  5.416869739254e-02    6  1  6  1
  1.719674333418e-02    6  2  4  1
  7.318876741532e-03    6  2  5  1
  1.207153540656e-02    6  2  6  2
 -7.318876741532e-03    6  3  4  1
  1.719674333418e-02    6  3  5  1
  1.207153540656e-02    6  3  6  3
  8.972993109822e-03    6  4  2  1
 -3.818875095897e-03    6  4  3  1
  1.727514687886e-02    6  4  6  4
  3.818875095897e-03    6  5  2  1
  8.972993109822e-03    6  5  3  1
  1.727514687886e-02    6  5  6  5
  2.424635670875e-01    6  6  1  1
  3.061682380551e-01    6  6  2  2
  3.061682380551e-01    6  6  3  3
  2.314424560944e-01    6  6  4  4
  2.314424560944e-01    6  6  5  5
  2.585993479807e-01    6  6  6  6
 -1.072761077419e+00    1  1  0  0
 -1.608093279859e+00    2  2  0  0
 -1.608093279859e+00    3  3  0  0
 -9.262210329043e-01    4  4  0  0
 -9.262210329043e-01    5  5  0  0
 -9.315517721614e-01    6  6  0  0
    -54.188329628162   0  0  0  0
