#INFO: **** input file is /projects/bamu3429/BENCHMARK/fresh_atoms/MRPT/vtz/atoms/Ti_0/mrpt.py ****
import json
from pyscf import gto,scf,mcscf, fci, lo, ci, cc
from pyscf.scf import ROHF, UHF,ROKS
import numpy as np
import pandas as pd

# THIS IS WERE IT STARTS ====================================

df=json.load(open("../../../trail.json"))

spins={'Sc':1, 'Ti':2, 'V':3, 'Cr':6, 'Mn':5, 'Fe':4, 'Cu':1}

nd={'Sc':(1,0), 'Ti':(2,0), 'V':(3,0), 'Cr':(5,0), 'Mn':(5,0), 'Fe':(5,1), 'Cu':(5,5)}

cas={'Sc':3, 'Ti':4, 'V':5, 'Cr':6, 'Mn':7, 'Fe':8, 'Cu':11}

datacsv={}
for nm in ['atom','charge','method','basis','pseudopotential','hf',
           'totalenergy','totalenergy-stocherr','totalenergy-syserr']:
  datacsv[nm]=[]

basis='vtz'
el='Ti'
charge=0

mol=gto.Mole()
mol.ecp={}
mol.basis={}
mol.ecp[el]=gto.basis.parse_ecp(df[el]['ecp'])
mol.basis[el]=gto.basis.parse(df[el][basis])
mol.charge=charge
if el == 'Cr' or el == 'Cu':
  mol.spin=spins[el]-charge
else:
  mol.spin=spins[el]+charge
mol.build(atom="%s 0. 0. 0."%el,verbose=4)

m=ROHF(mol)
m.level_shift=1000.0
dm=m.from_chk("../../../../HF/atoms/"+el+basis+str(charge)+".chk")
hf=m.kernel(dm)
m.analyze()

from pyscf.shciscf import shci
mc = shci.SHCISCF(m, 6, cas[el]-charge)
#mc.fcisolver.conv_tol = 1e-14
mc.fcisolver.mpiprefix="mpirun -np 28"
mc.fcisolver.num_thrds=12
mc.verbose = 4
cas=mc.kernel()[0]
 
from pyscf.icmpspt import icmpspt
pt=icmpspt.icmpspt(mc,rdmM=500, PTM=1000,\
                          pttype="MRLCC",\
                          third_order=True,\
                          fully_ic=True,\
                          do_dm4=True)

datacsv['atom'].append(el)
datacsv['charge'].append(charge)
datacsv['method'].append('MRPT')
datacsv['basis'].append(basis)
datacsv['pseudopotential'].append('trail')
datacsv['hf'].append(hf)
datacsv['totalenergy'].append(cas+pt)
datacsv['totalenergy-stocherr'].append(0.0)
datacsv['totalenergy-syserr'].append(0.0)
pd.DataFrame(datacsv).to_csv(el+".csv",index=False)

#INFO: ******************** input file end ********************


System: ('Linux', 'bnode0304.rc.int.colorado.edu', '3.10.0-514.41.1.el7.x86_64', '#1 SMP Wed Jan 17 10:26:16 EST 2018', 'x86_64', 'x86_64')  Threads 28
Python 2.7.11 (default, Mar 22 2016, 01:42:54) 
[GCC Intel(R) C++ gcc 4.8 mode]
numpy 1.11.1  scipy 0.17.1
Date: Fri Mar 30 11:42:32 2018
PySCF version 1.4
PySCF path  /projects/bamu3429/softwares/pyscf_uptodate/pyscf
GIT ORIG_HEAD e2292e6edec2b0e0024c21b81de03db1d7bd4121
GIT HEAD      ref: refs/heads/master
GIT master branch  f3591ef22170896a4cdc2aadaa6f5da388ffcadb

[INPUT] VERBOSE 4
[INPUT] num atoms = 1
[INPUT] num electrons = 12
[INPUT] charge = 0
[INPUT] spin (= nelec alpha-beta = 2S) = 2
[INPUT] symmetry False subgroup None
[INPUT]  1 Ti     0.000000000000   0.000000000000   0.000000000000 AA    0.000000000000   0.000000000000   0.000000000000 Bohr
[INPUT] ---------------- BASIS SET ---------------- 
[INPUT] l, kappa, [nprim/nctr], expnt,             c_1 c_2 ...
[INPUT] Ti
[INPUT] 0    0    [12   /1   ]  37.13946663       0.002411
                                11.66061728       -0.575963
                                8.9751153         2.645948
                                7.67011905        -2.362876
                                3.44923714        -0.059842
                                1.58705441        0.244002
                                0.95387432        0.58593
                                0.47300537        0.378609
                                0.2203041         0.031099
                                0.10349534        0.004602
                                0.04822069        0.000609
                                0.0226639         0.001044
[INPUT] 0    0    [12   /1   ]  37.13946663       -0.000363
                                11.66061728       0.129591
                                8.9751153         -0.625086
                                7.67011905        0.572499
                                3.44923714        0.016652
                                1.58705441        -0.073052
                                0.95387432        -0.203234
                                0.47300537        -0.251131
                                0.2203041         -0.044619
                                0.10349534        0.38905
                                0.04822069        0.591401
                                0.0226639         0.208165
[INPUT] 0    0    [12   /1   ]  37.13946663       -0.001048
                                11.66061728       0.513626
                                8.9751153         -2.6299
                                7.67011905        2.506927
                                3.44923714        0.034363
                                1.58705441        -1.199876
                                0.95387432        -0.360111
                                0.47300537        0.526538
                                0.2203041         0.906119
                                0.10349534        0.354604
                                0.04822069        -0.569496
                                0.0226639         -0.388471
[INPUT] 0    0    [12   /1   ]  37.13946663       -0.002126
                                11.66061728       0.777822
                                8.9751153         -4.101997
                                7.67011905        4.037004
                                3.44923714        -0.301669
                                1.58705441        -2.544268
                                0.95387432        1.067498
                                0.47300537        2.188092
                                0.2203041         -0.737717
                                0.10349534        -1.595594
                                0.04822069        0.519723
                                0.0226639         0.702092
[INPUT] 0    0    [1    /1   ]  0.0226639            1
[INPUT] 0    0    [1    /1   ]  0.01065211           1
[INPUT] 1    0    [12   /1   ]  44.38520603       0.000557
                                23.85822456       -0.004857
                                12.73507149       0.027448
                                6.00842867        -0.150306
                                3.96301478        0.092203
                                2.13751474        0.210744
                                1.20712576        0.397756
                                0.62000194        0.354359
                                0.30900057        0.130823
                                0.12918293        0.012952
                                0.05400711        -0.000125
                                0.02257859        0.000245
[INPUT] 1    0    [12   /1   ]  44.38520603       -7.7e-05
                                23.85822456       0.000906
                                12.73507149       -0.006126
                                6.00842867        0.038285
                                3.96301478        -0.027356
                                2.13751474        -0.059665
                                1.20712576        -0.115513
                                0.62000194        -0.130421
                                0.30900057        0.025358
                                0.12918293        0.394962
                                0.05400711        0.54831
                                0.02257859        0.169017
[INPUT] 1    0    [12   /1   ]  44.38520603       0.000257
                                23.85822456       -0.004273
                                12.73507149       0.034307
                                6.00842867        -0.26758
                                3.96301478        0.2157
                                2.13751474        0.80689
                                1.20712576        0.194864
                                0.62000194        -0.88026
                                0.30900057        -0.530792
                                0.12918293        0.664296
                                0.05400711        0.379472
                                0.02257859        -0.003174
[INPUT] 1    0    [12   /1   ]  44.38520603       0.000117
                                23.85822456       -0.005201
                                12.73507149       0.057541
                                6.00842867        -0.690259
                                3.96301478        1.21697
                                2.13751474        1.017989
                                1.20712576        -1.674556
                                0.62000194        -0.722613
                                0.30900057        1.629515
                                0.12918293        -0.172012
                                0.05400711        -0.594627
                                0.02257859        0.019229
[INPUT] 1    0    [1    /1   ]  0.02257859           1
[INPUT] 1    0    [1    /1   ]  0.00943936           1
[INPUT] 2    0    [10   /1   ]  29.31465998       -0.000519
                                13.63067536       -0.007186
                                8.04907964        0.095441
                                3.25682476        0.170565
                                1.474054          0.27882
                                0.66141289        0.324798
                                0.29673638        0.280135
                                0.13456087        0.172066
                                0.06095666        0.058237
                                0.02784531        0.004588
[INPUT] 2    0    [10   /1   ]  29.31465998       0.002823
                                13.63067536       -0.006527
                                8.04907964        -0.061261
                                3.25682476        -0.257858
                                1.474054          -0.489583
                                0.66141289        0.014563
                                0.29673638        0.349211
                                0.13456087        0.382975
                                0.06095666        0.175115
                                0.02784531        0.017645
[INPUT] 2    0    [10   /1   ]  29.31465998       0.007279
                                13.63067536       -0.0349
                                8.04907964        0.005127
                                3.25682476        -0.547554
                                1.474054          -0.249327
                                0.66141289        0.883201
                                0.29673638        0.185008
                                0.13456087        -0.439752
                                0.06095666        -0.35135
                                0.02784531        -0.032892
[INPUT] 2    0    [1    /1   ]  0.02784531           1
[INPUT] 2    0    [1    /1   ]  0.01271987           1
[INPUT] 3    0    [1    /1   ]  2.226593             1
[INPUT] 3    0    [1    /1   ]  0.630802             1
[INPUT] 3    0    [1    /1   ]  0.17870852           1
[INPUT] 4    0    [1    /1   ]  2.043434             1
[INPUT] 4    0    [1    /1   ]  0.57891237           1
nuclear repulsion = 0
number of shells = 22
number of NR pGTOs = 399
number of NR cGTOs = 88
basis = {'Ti': [[0, [37.13946663, 0.002411], [11.66061728, -0.575963], [8.9751153, 2.645948], [7.67011905, -2.362876], [3.44923714, -0.059842], [1.58705441, 0.244002], [0.95387432, 0.58593], [0.47300537, 0.378609], [0.2203041, 0.031099], [0.10349534, 0.004602], [0.04822069, 0.000609], [0.0226639, 0.001044]], [0, [37.13946663, -0.000363], [11.66061728, 0.129591], [8.9751153, -0.625086], [7.67011905, 0.572499], [3.44923714, 0.016652], [1.58705441, -0.073052], [0.95387432, -0.203234], [0.47300537, -0.251131], [0.2203041, -0.044619], [0.10349534, 0.38905], [0.04822069, 0.591401], [0.0226639, 0.208165]], [0, [37.13946663, -0.001048], [11.66061728, 0.513626], [8.9751153, -2.6299], [7.67011905, 2.506927], [3.44923714, 0.034363], [1.58705441, -1.199876], [0.95387432, -0.360111], [0.47300537, 0.526538], [0.2203041, 0.906119], [0.10349534, 0.354604], [0.04822069, -0.569496], [0.0226639, -0.388471]], [0, [37.13946663, -0.002126], [11.66061728, 0.777822], [8.9751153, -4.101997], [7.67011905, 4.037004], [3.44923714, -0.301669], [1.58705441, -2.544268], [0.95387432, 1.067498], [0.47300537, 2.188092], [0.2203041, -0.737717], [0.10349534, -1.595594], [0.04822069, 0.519723], [0.0226639, 0.702092]], [0, [0.0226639, 1.0]], [0, [0.01065211, 1.0]], [1, [44.38520603, 0.000557], [23.85822456, -0.004857], [12.73507149, 0.027448], [6.00842867, -0.150306], [3.96301478, 0.092203], [2.13751474, 0.210744], [1.20712576, 0.397756], [0.62000194, 0.354359], [0.30900057, 0.130823], [0.12918293, 0.012952], [0.05400711, -0.000125], [0.02257859, 0.000245]], [1, [44.38520603, -7.7e-05], [23.85822456, 0.000906], [12.73507149, -0.006126], [6.00842867, 0.038285], [3.96301478, -0.027356], [2.13751474, -0.059665], [1.20712576, -0.115513], [0.62000194, -0.130421], [0.30900057, 0.025358], [0.12918293, 0.394962], [0.05400711, 0.54831], [0.02257859, 0.169017]], [1, [44.38520603, 0.000257], [23.85822456, -0.004273], [12.73507149, 0.034307], [6.00842867, -0.26758], [3.96301478, 0.2157], [2.13751474, 0.80689], [1.20712576, 0.194864], [0.62000194, -0.88026], [0.30900057, -0.530792], [0.12918293, 0.664296], [0.05400711, 0.379472], [0.02257859, -0.003174]], [1, [44.38520603, 0.000117], [23.85822456, -0.005201], [12.73507149, 0.057541], [6.00842867, -0.690259], [3.96301478, 1.21697], [2.13751474, 1.017989], [1.20712576, -1.674556], [0.62000194, -0.722613], [0.30900057, 1.629515], [0.12918293, -0.172012], [0.05400711, -0.594627], [0.02257859, 0.019229]], [1, [0.02257859, 1.0]], [1, [0.00943936, 1.0]], [2, [29.31465998, -0.000519], [13.63067536, -0.007186], [8.04907964, 0.095441], [3.25682476, 0.170565], [1.474054, 0.27882], [0.66141289, 0.324798], [0.29673638, 0.280135], [0.13456087, 0.172066], [0.06095666, 0.058237], [0.02784531, 0.004588]], [2, [29.31465998, 0.002823], [13.63067536, -0.006527], [8.04907964, -0.061261], [3.25682476, -0.257858], [1.474054, -0.489583], [0.66141289, 0.014563], [0.29673638, 0.349211], [0.13456087, 0.382975], [0.06095666, 0.175115], [0.02784531, 0.017645]], [2, [29.31465998, 0.007279], [13.63067536, -0.0349], [8.04907964, 0.005127], [3.25682476, -0.547554], [1.474054, -0.249327], [0.66141289, 0.883201], [0.29673638, 0.185008], [0.13456087, -0.439752], [0.06095666, -0.35135], [0.02784531, -0.032892]], [2, [0.02784531, 1.0]], [2, [0.01271987, 1.0]], [3, [2.226593, 1.0]], [3, [0.630802, 1.0]], [3, [0.17870852, 1.0]], [4, [2.043434, 1.0]], [4, [0.57891237, 1.0]]]}
ecp = {'Ti': [10, [[-1, [[], [[8.52499277, 12.0]], [[15.2433413, 2048.39512837], [9.82605516, -812.71625987], [13.73638629, -6663.62886396], [12.6545051, 5396.93874773]], [[7.54790686, 102.29991323]]]], [0, [[], [], [[6.07854372, -5355.67455847], [6.60870356, 4802.76911085], [5.40803832, 1304.66429039], [10.43037595, -1133.61681175], [18.40796253, -258.77562194], [15.384288, 672.53886697]], []]], [1, [[], [], [[9.60319864, 56981.17339652], [9.66270511, -57002.97844363], [15.06515908, 1335.72576887], [16.36599976, -813.49634683], [7.86420177, -720.45341501], [10.25452653, 239.69852194]], []]], [2, [[], [], [[10.56650824, -4262.72074057], [2.71368379, -1.34753473], [9.33780917, 1569.82864567], [31.60560687, -0.4538755], [12.28030141, 5034.44351544], [13.3677017, -2350.67846378]], []]]]]}
CPU time:         3.57


******** <class 'pyscf.scf.rohf.ROHF'> flags ********
method = ROHF
initial guess = minao
damping factor = 0
level shift factor = 1000.0
DIIS = <class 'pyscf.scf.diis.CDIIS'>
DIIS start cycle = 1
DIIS space = 8
SCF tol = 1e-09
SCF gradient tol = None
max. SCF cycles = 50
direct_scf = True
direct_scf_tol = 1e-13
chkfile to save SCF result = /projects/bamu3429/BENCHMARK/fresh_atoms/MRPT/vtz/atoms/Ti_0/tmpN0NSSt
max_memory 4000 MB (current use 107 MB)
num. doubly occ = 5  num. singly occ = 2
Set gradient conv threshold to 3.16228e-05
init E= -57.5113762946984
  HOMO = 499.917082056528  LUMO = 1000.01339705502
cycle= 1 E= -57.5113762946985  delta_E= -9.24e-14  |g|= 4.16e-06  |ddm|= 1.33e-08
  HOMO = -0.0829179437358288  LUMO = 0.0133970550216108
Extra cycle  E= -57.511376294699  delta_E= -4.76e-13  |g|= 1.36e-06  |ddm|= 1.17e-05
converged SCF energy = -57.511376294699
**** MO energy ****
                Roothaan           | alpha              | beta
MO #1   energy= -2.92659510888674  | -2.99330844432204  | -2.85988177345145  occ= 2
MO #2   energy= -1.8191427518204   | -1.88524583246505  | -1.75303967117576  occ= 2
MO #3   energy= -1.8191427518204   | -1.88524583246504  | -1.75303967117575  occ= 2
MO #4   energy= -1.81349212828915  | -1.93014406212461  | -1.69684019445369  occ= 2
MO #5   energy= -0.223071889562351 | -0.231273224936455 | -0.214870554188247 occ= 2
MO #6   energy= -0.0829179437358301 | -0.427254515458224 | 0.261418709059495  occ= 1
MO #7   energy= -0.0829179437358288 | -0.427254515458219 | 0.261418709059497  occ= 1
MO #8   energy= 0.0133970550216108 | 0.0127446669372641 | 0.0140494431059576 occ= 0
MO #9   energy= 0.0133970550216113 | 0.0127446669372638 | 0.0140494431059575 occ= 0
MO #10  energy= 0.0145692054509551 | 0.0136618863328335 | 0.0154765245690779 occ= 0
MO #11  energy= 0.0241644550552132 | 0.0237770140900101 | 0.0245518960204191 occ= 0
MO #12  energy= 0.0389630423505968 | 0.0389088571267539 | 0.0390172275744407 occ= 0
MO #13  energy= 0.0389630423505983 | 0.0389088571267561 | 0.0390172275744426 occ= 0
MO #14  energy= 0.0391250914913845 | 0.0391014002156657 | 0.0391487827670993 occ= 0
MO #15  energy= 0.0394524871634214 | 0.0393884419213439 | 0.0395164770106105 occ= 0
MO #16  energy= 0.0394524871634229 | 0.0393884419213445 | 0.0395164770106111 occ= 0
MO #17  energy= 0.0442523553937591 | 0.0428089809703371 | 0.0456957298171821 occ= 0
MO #18  energy= 0.0442523553937599 | 0.0428089809703372 | 0.0456957298171825 occ= 0
MO #19  energy= 0.0467084076815093 | 0.0442294165467309 | 0.0491873988162859 occ= 0
MO #20  energy= 0.0994652416028625 | 0.0943943601820151 | 0.104536123023712  occ= 0
MO #21  energy= 0.0994652416028712 | 0.0943943601820236 | 0.104536123023717  occ= 0
MO #22  energy= 0.105677680688326  | 0.103572768862879  | 0.107782592513775  occ= 0
MO #23  energy= 0.123572270892595  | 0.121237438566282  | 0.125907047889607  occ= 0
MO #24  energy= 0.123572270892597  | 0.121237438566285  | 0.12590704788961   occ= 0
MO #25  energy= 0.178260742040182  | 0.162445291800827  | 0.194076192279537  occ= 0
MO #26  energy= 0.178260742040207  | 0.162445291800848  | 0.194076192279566  occ= 0
MO #27  energy= 0.188896078259095  | 0.184166586903474  | 0.193625569614715  occ= 0
MO #28  energy= 0.188896078259095  | 0.184166586903475  | 0.193625569614716  occ= 0
MO #29  energy= 0.194557331792885  | 0.186226923155227  | 0.202887740430547  occ= 0
MO #30  energy= 0.194740435894403  | 0.190853957521621  | 0.19862691426718   occ= 0
MO #31  energy= 0.20244760104648   | 0.190159730133241  | 0.214735471959717  occ= 0
MO #32  energy= 0.646615096901649  | 0.644743436443533  | 0.648486757359764  occ= 0
MO #33  energy= 0.64661509690165   | 0.644743436443535  | 0.648486757359765  occ= 0
MO #34  energy= 0.647902066648697  | 0.637599432105089  | 0.658204701192308  occ= 0
MO #35  energy= 0.6479020666487    | 0.637599432105091  | 0.65820470119231   occ= 0
MO #36  energy= 0.650292051585035  | 0.642594111238315  | 0.657989991931753  occ= 0
MO #37  energy= 0.650292051585036  | 0.642594111238317  | 0.657989991931755  occ= 0
MO #38  energy= 0.65134247602586   | 0.645829265354031  | 0.656855686697691  occ= 0
MO #39  energy= 0.655852309708114  | 0.617834722624989  | 0.693869896532577  occ= 0
MO #40  energy= 0.655852309708116  | 0.617834722624989  | 0.693869896532576  occ= 0
MO #41  energy= 0.700832201199404  | 0.689092541293946  | 0.712571861104863  occ= 0
MO #42  energy= 0.700832201199472  | 0.689092541294016  | 0.712571861104928  occ= 0
MO #43  energy= 0.720728360952906  | 0.711521447552961  | 0.729935274352851  occ= 0
MO #44  energy= 0.868362002513736  | 0.857627820817974  | 0.879096184209481  occ= 0
MO #45  energy= 1.41838198473476   | 1.40229085043425   | 1.43447311903527   occ= 0
MO #46  energy= 1.41838198473476   | 1.40229085043425   | 1.43447311903527   occ= 0
MO #47  energy= 1.43893299701357   | 1.4119678795834    | 1.46589811444373   occ= 0
MO #48  energy= 2.16296573988184   | 2.11280794803234   | 2.21312353173134   occ= 0
MO #49  energy= 2.16296573988184   | 2.11280794803234   | 2.21312353173134   occ= 0
MO #50  energy= 2.16664213218689   | 2.15687128154965   | 2.17641298282413   occ= 0
MO #51  energy= 2.16664213218689   | 2.15687128154965   | 2.17641298282413   occ= 0
MO #52  energy= 2.17331830530904   | 2.13574946690641   | 2.21088714371167   occ= 0
MO #53  energy= 2.17331830530905   | 2.13574946690641   | 2.21088714371167   occ= 0
MO #54  energy= 2.17878633569214   | 2.15166159210166   | 2.20591107928262   occ= 0
MO #55  energy= 2.61170696133895   | 2.60751703614927   | 2.61589688652863   occ= 0
MO #56  energy= 2.61170696133896   | 2.60751703614928   | 2.61589688652864   occ= 0
MO #57  energy= 2.62482581587848   | 2.60749214095969   | 2.64215949079728   occ= 0
MO #58  energy= 2.62482581587848   | 2.60749214095969   | 2.64215949079728   occ= 0
MO #59  energy= 2.628797783072     | 2.61204108502608   | 2.64555448111792   occ= 0
MO #60  energy= 2.62879778307201   | 2.61204108502609   | 2.64555448111793   occ= 0
MO #61  energy= 2.62952816660184   | 2.61530108586246   | 2.64375524748336   occ= 0
MO #62  energy= 2.62952816660185   | 2.61530108586246   | 2.64375524748336   occ= 0
MO #63  energy= 2.62969667735565   | 2.61726339888632   | 2.64212995582498   occ= 0
MO #64  energy= 2.72949034799153   | 2.66953688741713   | 2.78944383788108   occ= 0
MO #65  energy= 2.72949034799153   | 2.66953688741713   | 2.78944383788108   occ= 0
MO #66  energy= 2.73817607491259   | 2.72383184338325   | 2.75252030644193   occ= 0
MO #67  energy= 2.73817607491265   | 2.72383184338331   | 2.75252030644199   occ= 0
MO #68  energy= 2.7638484269157    | 2.75352368003592   | 2.77417317379548   occ= 0
MO #69  energy= 3.76960589816239   | 3.74896455014732   | 3.79024724617745   occ= 0
MO #70  energy= 5.57673233324801   | 5.55896945005882   | 5.59449521643721   occ= 0
MO #71  energy= 5.57673233324801   | 5.55896945005882   | 5.59449521643721   occ= 0
MO #72  energy= 5.60600579465245   | 5.57701518724363   | 5.63499640206128   occ= 0
MO #73  energy= 6.80459155778721   | 6.7916284273397    | 6.81755468823475   occ= 0
MO #74  energy= 6.80459155778722   | 6.7916284273397    | 6.81755468823475   occ= 0
MO #75  energy= 6.81253532000348   | 6.7528594701636    | 6.87221116984336   occ= 0
MO #76  energy= 6.81253532000348   | 6.7528594701636    | 6.87221116984336   occ= 0
MO #77  energy= 6.82404674326756   | 6.77901684177393   | 6.86907664476119   occ= 0
MO #78  energy= 6.82404674326756   | 6.77901684177394   | 6.8690766447612    occ= 0
MO #79  energy= 6.82900843875279   | 6.7960574515284    | 6.86195942597719   occ= 0
MO #80  energy= 9.07527401078337   | 9.06657960709285   | 9.08396841447391   occ= 0
MO #81  energy= 9.07527401078337   | 9.06657960709284   | 9.08396841447391   occ= 0
MO #82  energy= 9.10149930302952   | 9.06683919196843   | 9.13615941409062   occ= 0
MO #83  energy= 9.10149930302953   | 9.06683919196843   | 9.13615941409062   occ= 0
MO #84  energy= 9.11007392207379   | 9.0750389674971    | 9.14510887665048   occ= 0
MO #85  energy= 9.1100739220738    | 9.07503896749711   | 9.1451088766505    occ= 0
MO #86  energy= 9.11071662583034   | 9.08613769471588   | 9.13529555694483   occ= 0
MO #87  energy= 9.11107051748839   | 9.08295588091913   | 9.13918515451031   occ= 0
MO #88  energy= 9.11107051748841   | 9.08295588091914   | 9.13918515451032   occ= 0
 ** Mulliken pop on meta-lowdin orthogonal AOs  **
 ** Mulliken pop  **
pop of  0Ti 3s        1.99983
pop of  0Ti 4s        1.99766
pop of  0Ti 5s        0.00083
pop of  0Ti 6s        0.00021
pop of  0Ti 7s        0.00017
pop of  0Ti 8s        0.00016
pop of  0Ti 3px       1.99977
pop of  0Ti 3py       1.99947
pop of  0Ti 3pz       1.99977
pop of  0Ti 4px       0.00014
pop of  0Ti 4py       0.00006
pop of  0Ti 4pz       0.00014
pop of  0Ti 5px       0.00004
pop of  0Ti 5py       0.00002
pop of  0Ti 5pz       0.00004
pop of  0Ti 6px       0.00001
pop of  0Ti 6py       0.00000
pop of  0Ti 6pz       0.00001
pop of  0Ti 7px       0.00000
pop of  0Ti 7py       0.00000
pop of  0Ti 7pz       0.00000
pop of  0Ti 8px       0.00000
pop of  0Ti 8py       0.00000
pop of  0Ti 8pz       0.00000
pop of  0Ti 3dxy      0.99229
pop of  0Ti 3dyz      0.99229
pop of  0Ti 3dz^2     0.00017
pop of  0Ti 3dxz      0.00000
pop of  0Ti 3dx2-y2    0.00052
pop of  0Ti 4dxy      0.00605
pop of  0Ti 4dyz      0.00605
pop of  0Ti 4dz^2     0.00009
pop of  0Ti 4dxz      0.00000
pop of  0Ti 4dx2-y2    0.00027
pop of  0Ti 5dxy      0.00049
pop of  0Ti 5dyz      0.00049
pop of  0Ti 5dz^2     0.00000
pop of  0Ti 5dxz      0.00000
pop of  0Ti 5dx2-y2    0.00001
pop of  0Ti 6dxy      0.00114
pop of  0Ti 6dyz      0.00114
pop of  0Ti 6dz^2     0.00001
pop of  0Ti 6dxz      0.00000
pop of  0Ti 6dx2-y2    0.00004
pop of  0Ti 7dxy      0.00002
pop of  0Ti 7dyz      0.00002
pop of  0Ti 7dz^2     0.00000
pop of  0Ti 7dxz      0.00000
pop of  0Ti 7dx2-y2    0.00000
pop of  0Ti 4fy^3     0.00010
pop of  0Ti 4fxyz     0.00000
pop of  0Ti 4fyz^2    0.00006
pop of  0Ti 4fz^3     0.00000
pop of  0Ti 4fxz^2    0.00000
pop of  0Ti 4fzx^2    0.00000
pop of  0Ti 4fx^3     0.00000
pop of  0Ti 5fy^3     0.00016
pop of  0Ti 5fxyz     0.00000
pop of  0Ti 5fyz^2    0.00009
pop of  0Ti 5fz^3     0.00001
pop of  0Ti 5fxz^2    0.00000
pop of  0Ti 5fzx^2    0.00001
pop of  0Ti 5fx^3     0.00002
pop of  0Ti 6fy^3     0.00002
pop of  0Ti 6fxyz     0.00000
pop of  0Ti 6fyz^2    0.00001
pop of  0Ti 6fz^3     0.00000
pop of  0Ti 6fxz^2    0.00000
pop of  0Ti 6fzx^2    0.00001
pop of  0Ti 6fx^3     0.00001
pop of  0Ti 5g-4      0.00000
pop of  0Ti 5g-3      0.00000
pop of  0Ti 5g-2      0.00000
pop of  0Ti 5g-1      0.00000
pop of  0Ti 5g 0      0.00000
pop of  0Ti 5g 1      0.00000
pop of  0Ti 5g 2      0.00000
pop of  0Ti 5g 3      0.00000
pop of  0Ti 5g 4      0.00000
pop of  0Ti 6g-4      0.00001
pop of  0Ti 6g-3      0.00000
pop of  0Ti 6g-2      0.00000
pop of  0Ti 6g-1      0.00001
pop of  0Ti 6g 0      0.00000
pop of  0Ti 6g 1      0.00000
pop of  0Ti 6g 2      0.00000
pop of  0Ti 6g 3      0.00000
pop of  0Ti 6g 4      0.00000
 ** Mulliken atomic charges  **
charge of  0Ti =     -0.00000

******** <class 'pyscf.mcscf.mc1step.CASSCF'> flags ********
CAS (3e+1e, 6o), ncore = 4, nvir = 78
max_cycle_macro = 50
max_cycle_micro = 4
conv_tol = 1e-07
conv_tol_grad = None
orbital rotation max_stepsize = 0.02
augmented hessian ah_max_cycle = 30
augmented hessian ah_conv_tol = 1e-12
augmented hessian ah_linear dependence = 1e-14
augmented hessian ah_level shift = 0
augmented hessian ah_start_tol = 2.5
augmented hessian ah_start_cycle = 3
augmented hessian ah_grad_trust_region = 3
kf_trust_region = 3
kf_interval = 4
ci_response_space = 4
ci_grad_trust_region = 3
with_dep4 0
natorb = False
canonicalization = True
chkfile = ./scratch/378/tmpUMcUpf
max_memory 4000 MB (current use 224 MB)
internal_rotation = False

******** SHCI flags ********
executable             = /home/bamu3429/softwares/dice/Dice
mpiprefix              = mpirun -np 28
scratchDirectory       = ./scratch/378
integralFile           = ./FCIDUMP
configFile             = ./input.dat
outputFile             = ./output.dat
maxIter                = 6
sweep_iter             = []
sweep_epsilon          = []
nPTiter                = 0
Stochastic             = True
fullrestart            = False
restart                = False
num_thrds              = 12
memory                 = None

CASCI E = -57.5123989041797  S^2 = 2.0000000
Set conv_tol_grad to 0.000316228
macro iter 1 (21 JK  4 micro), CASSCF E = -57.5243460904371  dE = -0.011947186  S^2 = 2.0000000
               |grad[o]|=0.00286  |grad[c]|= None  |ddm|=0.0641
macro iter 2 (21 JK  4 micro), CASSCF E = -57.5371522868508  dE = -0.012806196  S^2 = 2.0000000
               |grad[o]|=0.014  |grad[c]|= None  |ddm|=0.0661
macro iter 3 (20 JK  4 micro), CASSCF E = -57.5427644606513  dE = -0.0056121738  S^2 = 2.0000000
               |grad[o]|=0.0114  |grad[c]|= None  |ddm|=0.0199
macro iter 4 (6 JK  2 micro), CASSCF E = -57.5427818282601  dE = -1.7367609e-05  S^2 = 2.0000000
               |grad[o]|=0.000982  |grad[c]|= None  |ddm|=0.000889
macro iter 5 (3 JK  1 micro), CASSCF E = -57.5427818308571  dE = -2.5969911e-09  S^2 = 2.0000000
               |grad[o]|=3.21e-05  |grad[c]|= None  |ddm|=    0
1-step CASSCF converged in 5 macro (71 JK 15 micro) steps
CASSCF canonicalization
CASSCF energy = -57.5427818308571


--------------------------------------------------
                 ICMPSPT CALCULATION              
--------------------------------------------------

Perturbation type: MRLCC
With fully internally contracted scheme
With third order correction

Preparing necessary RDMs
......production of RDMs took       1.20 sec
Reading binary 4RDM from DICE
......reading the RDM took          0.97 sec

(GOOD) Trace 4RDM:     24.0 =    4*    3*    2*    1
(GOOD) Trace 3RDM:     24.0 =    4*    3*    2
(GOOD) Trace 2RDM:     12.0 =    4*    3
(GOOD) Trace 1RDM:      4.0 =    4

Producing the integrals
......production of INT took      90.21 sec

Energy_core =  -54.1883296282
Energy      =  -57.5427818309

WARNING: Have to use natural orbitals from CAASCF
         offdiagonal elements: 0.46542169562

Basic ingredients written to int/
......savings of INGREDIENTS took      17.76 sec

Second-order:
perturber CCVV --        -0.201012744
perturber CCAV --        -0.056930836
perturber ACVV --        -0.103314297
perturber CCAA --        -0.002663704
perturber AAVV --        -0.030949933
perturber CAAV --        -0.041089950
perturber AAAV --        -0.008387605
perturber AAAC --        -0.002901901
Total:                   -0.447250971

Third-order:              0.001143629

Total PT       --        -0.446107343

