 &FCI NORB=6 ,NELEC=6 ,MS2=6,
  ORBSYM=1,1,1,1,1,1,
  ISYM=1,
 &END
  8.693379211659e-01    1  1  1  1
  3.620437477010e-02    2  1  2  1
  7.969291716257e-01    2  2  1  1
  8.693379211659e-01    2  2  2  2
  2.943062915943e-03    3  1  2  1
  8.317900617673e-04    3  1  2  2
  3.617762846405e-02    3  1  3  1
 -5.886125831880e-03    3  2  1  1
 -4.158950308833e-04    3  2  2  1
 -1.140388104038e-03    3  2  3  1
  2.441770969246e-02    3  2  3  2
  7.969826642378e-01    3  3  1  1
  2.280776208076e-03    3  3  2  1
  8.205025017810e-01    3  3  2  2
  8.693379211659e-01    3  3  3  3
 -5.608915243400e-04    4  1  2  1
  6.947022644888e-03    4  1  2  2
 -1.322301893018e-04    4  1  3  1
 -1.756912776527e-03    4  1  3  2
 -3.096338858048e-03    4  1  3  3
  2.417934621611e-02    4  1  4  1
  1.121783048679e-03    4  2  1  1
 -3.473511322444e-03    4  2  2  1
 -7.589698474579e-03    4  2  3  1
 -5.104395432790e-03    4  2  3  2
  9.155771779804e-03    4  2  3  3
 -1.529576983788e-03    4  2  4  1
  3.361171409421e-02    4  2  4  2
  2.644603786034e-04    4  3  1  1
  9.346611251105e-03    4  3  2  1
  1.020879086558e-02    4  3  2  2
  1.548169429024e-03    4  3  3  1
 -4.577885889902e-03    4  3  3  2
  6.872266665755e-03    4  3  4  1
 -6.187766507684e-04    4  3  4  2
  3.459354341078e-02    4  3  4  3
  8.209792287337e-01    4  4  1  1
  3.059153967576e-03    4  4  2  1
  8.021144929775e-01    4  4  2  2
 -1.374453333151e-02    4  4  3  1
  1.237553301548e-03    4  4  3  2
  8.001508343443e-01    4  4  3  3
  8.693379211659e-01    4  4  4  4
 -5.138905012713e-03    5  1  2  1
  5.030573027978e-03    5  1  2  2
  5.199975113973e-03    5  1  3  1
 -5.403142688785e-03    5  1  3  2
  5.551997377492e-03    5  1  3  3
  1.802590926669e-03    5  1  4  1
  6.321195771134e-03    5  1  4  2
  2.142089933286e-03    5  1  4  3
 -1.058257040547e-02    5  1  4  4
  2.956152831488e-02    5  1  5  1
  1.027781002543e-02    5  2  1  1
 -2.515286513989e-03    5  2  2  1
  3.415243281291e-03    5  2  3  1
 -4.209723837458e-03    5  2  3  2
 -1.240119372873e-02    5  2  3  3
  5.918774642707e-03    5  2  4  1
 -3.947116506135e-03    5  2  4  2
  6.100225136534e-03    5  2  4  3
  2.123383703304e-03    5  2  4  4
  2.669965087826e-03    5  2  5  1
  3.188907920837e-02    5  2  5  2
 -1.039995022795e-02    5  3  1  1
  1.987899407493e-03    5  3  2  1
  8.419447674917e-03    5  3  2  2
 -2.775998688746e-03    5  3  3  1
  6.200596864364e-03    5  3  3  2
  2.551615825640e-03    5  3  4  1
 -7.569061793562e-03    5  3  4  2
  2.144525579466e-03    5  3  4  3
  1.980502553030e-03    5  3  4  4
 -6.456371634871e-03    5  3  5  1
 -2.324286265174e-03    5  3  5  2
  3.093399619785e-02    5  3  5  3
 -3.605181853338e-03    5  4  1  1
 -1.223997041384e-02    5  4  2  1
  7.894233012271e-03    5  4  2  2
 -4.693705758926e-03    5  4  3  1
  1.468836657028e-03    5  4  3  2
 -4.289051158931e-03    5  4  3  3
  5.291285202735e-03    5  4  4  1
 -1.061691851651e-03    5  4  4  2
 -9.902512765150e-04    5  4  4  3
  1.925341893420e-03    5  4  5  1
  5.138777414242e-03    5  4  5  2
  5.236625622092e-03    5  4  5  3
  3.373827404404e-02    5  4  5  4
  8.102148645362e-01    5  5  1  1
 -5.339930175654e-03    5  5  2  1
  8.055597627492e-01    5  5  2  2
  1.291274326974e-02    5  5  3  1
  4.648572530360e-03    5  5  3  2
  8.074699287702e-01    5  5  3  3
 -3.850683786839e-03    5  5  4  1
 -1.027755482848e-02    5  5  4  2
 -1.047325124418e-02    5  5  4  3
  8.018613730778e-01    5  5  4  4
  8.693379211659e-01    5  5  5  5
  1.332839629063e-03    6  1  1  1
 -2.386787108460e-04    6  1  2  1
 -9.334007693708e-04    6  1  2  2
 -1.468664214002e-04    6  1  3  1
 -3.876184155363e-04    6  1  3  2
 -9.574385065970e-04    6  1  3  3
  1.640822100308e-05    6  1  4  1
  1.837721717701e-04    6  1  4  2
 -9.257412287910e-05    6  1  4  3
  6.668295804023e-04    6  1  4  4
  5.130958573698e-05    6  1  5  1
  6.898135625010e-04    6  1  5  2
 -6.989623301517e-04    6  1  5  3
 -4.959189164354e-05    6  1  5  4
 -1.088299335154e-04    6  1  5  5
  9.542762652797e-03    6  1  6  1
 -2.386787108457e-04    6  2  1  1
 -9.334007693677e-04    6  2  2  1
  5.350425895219e-04    6  2  2  2
 -3.876184155364e-04    6  2  3  1
 -2.608695421997e-04    6  2  3  2
  4.670347915908e-04    6  2  3  3
  1.837721717702e-04    6  2  4  1
  7.940407077746e-04    6  2  4  2
 -1.129470033604e-04    6  2  4  3
 -3.950068611384e-04    6  2  4  4
  6.898135625012e-04    6  2  5  1
  4.288962993170e-05    6  2  5  2
 -2.496487181594e-04    6  2  5  3
  7.198612958335e-04    6  2  5  4
 -3.683918091268e-04    6  2  5  5
  9.542762652798e-03    6  2  6  2
 -1.468664213999e-04    6  3  1  1
 -3.876184155364e-04    6  3  2  1
 -2.608695421994e-04    6  3  2  2
 -9.574385065939e-04    6  3  3  1
  4.670347915905e-04    6  3  3  2
 -3.795250262675e-04    6  3  3  3
 -9.257412287918e-05    6  3  4  1
 -1.129470033604e-04    6  3  4  2
 -5.422500086959e-04    6  3  4  3
  9.365131650438e-04    6  3  4  4
 -6.989623301519e-04    6  3  5  1
 -2.496487181594e-04    6  3  5  2
  5.338692207883e-04    6  3  5  3
  4.985171704001e-04    6  3  5  4
 -1.492521751755e-04    6  3  5  5
  9.542762652798e-03    6  3  6  3
  1.640822100308e-05    6  4  1  1
  1.837721717702e-04    6  4  2  1
  7.940407077746e-04    6  4  2  2
 -9.257412287917e-05    6  4  3  1
 -1.129470033603e-04    6  4  3  2
 -5.422500086960e-04    6  4  3  3
  6.668295804060e-04    6  4  4  1
 -3.950068611386e-04    6  4  4  2
  9.365131650434e-04    6  4  4  3
  2.639066204427e-04    6  4  4  4
 -4.959189164348e-05    6  4  5  1
  7.198612958334e-04    6  4  5  2
  4.985171704001e-04    6  4  5  3
  5.572296928563e-04    6  4  5  4
 -5.321055405244e-04    6  4  5  5
  9.542762652799e-03    6  4  6  4
  5.130958573703e-05    6  5  1  1
  6.898135625012e-04    6  5  2  1
  4.288962993167e-05    6  5  2  2
 -6.989623301519e-04    6  5  3  1
 -2.496487181593e-04    6  5  3  2
  5.338692207883e-04    6  5  3  3
 -4.959189164348e-05    6  5  4  1
  7.198612958334e-04    6  5  4  2
  4.985171704001e-04    6  5  4  3
  5.572296928564e-04    6  5  4  4
 -1.088299335121e-04    6  5  5  1
 -3.683918091273e-04    6  5  5  2
 -1.492521751757e-04    6  5  5  3
 -5.321055405245e-04    6  5  5  4
 -1.185298129313e-03    6  5  5  5
  9.542762652799e-03    6  5  6  5
  3.933982800635e-01    6  6  1  1
  3.933982800635e-01    6  6  2  2
  3.933982800635e-01    6  6  3  3
  3.933982800636e-01    6  6  4  4
  3.933982800636e-01    6  6  5  5
  3.130628488005e-01    6  6  6  6
 -4.408762189062e+00    1  1  0  0
 -4.408762189062e+00    2  2  0  0
 -4.408762189062e+00    3  3  0  0
 -4.408762189062e+00    4  4  0  0
 -4.408762189062e+00    5  5  0  0
 -2.469714611760e+00    6  6  0  0
    -88.452136374645   0  0  0  0
