 &FCI NORB=6 ,NELEC=5 ,MS2=5,
  ORBSYM=1,1,1,1,1,1,
  ISYM=1,
 &END
  7.450749282960e-01    1  1  1  1
  1.155392352661e-08    2  1  1  1
  1.697838121098e-02    2  1  2  1
  7.111180921181e-01    2  2  1  1
  1.388875711525e-08    2  2  2  1
  7.450747655191e-01    2  2  2  2
 -7.635566868725e-09    3  1  1  1
 -1.723518976067e-04    3  1  2  1
  1.103252030755e-03    3  1  2  2
  2.384031233681e-02    3  1  3  1
  3.446992944037e-04    3  2  1  1
 -5.516294158571e-04    3  2  2  1
 -2.330101746434e-09    3  2  2  2
 -6.019480017416e-04    3  2  3  1
  2.831024740015e-02    3  2  3  2
  6.973943054911e-01    3  3  1  1
  1.203925254686e-03    3  3  2  1
  6.884542297534e-01    3  3  2  2
  5.128679847969e-09    3  3  3  1
 -5.213177659240e-10    3  3  3  2
  7.450746771860e-01    3  3  3  3
  7.188722389060e-08    4  1  1  1
  5.749603783318e-04    4  1  2  1
 -4.503765299333e-03    4  1  2  2
  1.015901398202e-04    4  1  3  1
 -1.224676653546e-02    4  1  3  2
  8.553569680589e-03    4  1  3  3
  3.197659740899e-02    4  1  4  1
 -1.149924498348e-03    4  2  1  1
  2.251927975015e-03    4  2  2  1
  1.208739749216e-08    4  2  2  2
  8.661704504010e-03    4  2  3  1
 -5.053243570189e-04    4  2  3  2
  2.532020030471e-03    4  2  3  3
  2.274922368186e-04    4  2  4  1
  2.921678105271e-02    4  2  4  2
 -2.031930091474e-04    4  3  1  1
  3.585171432576e-03    4  3  2  1
  1.010678955638e-03    4  3  2  2
 -4.276790409835e-03    4  3  3  1
 -1.266016881450e-03    4  3  3  2
  8.740516206549e-09    4  3  3  3
 -7.763094033368e-05    4  3  4  1
  1.626300379925e-03    4  3  4  2
  2.731386379835e-02    4  3  4  3
  6.811212482358e-01    4  4  1  1
 -4.550188312919e-04    4  4  2  1
  6.866411519771e-01    4  4  2  2
  1.552603379164e-04    4  4  3  1
 -3.252518964241e-03    4  4  3  2
  6.904468535095e-01    4  4  3  3
 -6.459718369979e-08    4  4  4  1
 -7.964446600565e-09    4  4  4  2
  2.303128969817e-09    4  4  4  3
  7.450745361599e-01    4  4  4  4
  1.084753982476e-07    5  1  1  1
  3.858957728727e-04    5  1  2  1
 -7.941209789346e-03    5  1  2  2
 -8.433834597662e-04    5  1  3  1
  7.286893565169e-03    5  1  3  2
  1.453009259614e-02    5  1  3  3
  4.367841583335e-04    5  1  4  1
  7.919890189556e-04    5  1  4  2
 -1.366602749561e-03    5  1  4  3
 -6.588873268977e-03    5  1  4  4
  3.229546045273e-02    5  1  5  1
 -7.717824317694e-04    5  2  1  1
  3.970680017712e-03    5  2  2  1
  2.344845235026e-08    5  2  2  2
 -5.422983878119e-03    5  2  3  1
  2.750156275627e-04    5  2  3  2
  1.010276199145e-03    5  2  3  3
 -1.155628582981e-03    5  2  4  1
  1.266212342100e-03    5  2  4  2
  1.309204444650e-02    5  2  4  3
 -2.384895001397e-04    5  2  4  4
  3.744381909197e-04    5  2  5  1
  3.058546385050e-02    5  2  5  2
  1.686807498921e-03    5  3  1  1
 -1.863970720171e-03    5  3  2  1
 -5.500552433771e-04    5  3  2  2
 -7.265058034053e-03    5  3  3  1
 -5.051369633424e-04    5  3  3  2
  1.384235030940e-08    5  3  3  3
  1.847188320445e-03    5  3  4  1
 -1.145830129798e-02    5  3  4  2
 -1.702956390131e-03    5  3  4  3
 -1.136739283783e-03    5  3  4  4
  6.292664882185e-04    5  3  5  1
 -1.453950967289e-03    5  3  5  2
  2.562636021035e-02    5  3  5  3
 -8.734754167727e-04    5  4  1  1
  3.636404332011e-04    5  4  2  1
 -2.532331506515e-03    5  4  2  2
 -4.805844371695e-04    5  4  3  1
 -1.633692836445e-03    5  4  3  2
  3.405838879751e-03    5  4  3  3
  3.294383351955e-03    5  4  4  1
  1.192410843861e-04    5  4  4  2
  5.683696417998e-04    5  4  4  3
 -2.614243697759e-08    5  4  4  4
  2.024872653400e-03    5  4  5  1
  6.910495148326e-04    5  4  5  2
  4.037362264501e-04    5  4  5  3
  1.658343237242e-02    5  4  5  4
  6.804836243900e-01    5  5  1  1
 -7.489185620336e-04    5  5  2  1
  6.839038954750e-01    5  5  2  2
 -1.258502990195e-03    5  5  3  1
  2.907813919822e-03    5  5  3  2
  6.938217786597e-01    5  5  3  3
 -4.049782026700e-03    5  5  4  1
 -1.382104470285e-03    5  5  4  2
 -8.074752504251e-04    5  5  4  3
  7.119076505807e-01    5  5  4  4
 -1.074888037190e-07    5  5  5  1
 -1.727549053553e-08    5  5  5  2
  6.112490885558e-10    5  5  5  3
 -2.462031790881e-08    5  5  5  4
  7.450744900239e-01    5  5  5  5
  2.113695461576e-03    6  1  1  1
  7.658433754463e-05    6  1  2  1
  7.761046502368e-04    6  1  2  2
 -1.376468251451e-04    6  1  3  1
 -1.952185634321e-05    6  1  3  2
  1.895130371661e-03    6  1  3  3
  1.011338964470e-03    6  1  4  1
 -1.174333135772e-04    6  1  4  2
 -1.032209253902e-04    6  1  4  3
 -2.558784164399e-03    6  1  4  4
  1.547972905154e-03    6  1  5  1
 -6.893905548333e-05    6  1  5  2
  4.264554238305e-04    6  1  5  3
  2.756727291022e-04    6  1  5  4
 -2.270444799251e-03    6  1  5  5
  6.482037287598e-03    6  1  6  1
  7.531745720103e-05    6  2  1  1
  7.847083109335e-04    6  2  2  1
  3.273598729406e-04    6  2  2  2
 -1.950020563364e-05    6  2  3  1
 -1.126627765731e-04    6  2  3  2
  2.336428445428e-04    6  2  3  3
 -1.174402139587e-04    6  2  4  1
  1.372822461786e-03    6  2  4  2
  2.093802204160e-03    6  2  4  3
 -2.285329947830e-04    6  2  4  4
 -6.893026798335e-05    6  2  5  1
  2.308515204126e-03    6  2  5  2
 -1.210990872171e-03    6  2  5  3
  8.177808175888e-05    6  2  5  4
 -4.142976561205e-04    6  2  5  5
 -3.645294879638e-09    6  2  6  1
  6.482060438422e-03    6  2  6  2
 -1.373117952584e-04    6  3  1  1
 -1.950403805749e-05    6  3  2  1
 -1.123398376706e-04    6  3  2  2
  1.903944982560e-03    6  3  3  1
  2.349250822479e-04    6  3  3  2
  4.729252215576e-04    6  3  3  3
 -1.032124758811e-04    6  3  4  1
  2.094054201203e-03    6  3  4  2
 -1.024438027217e-03    6  3  4  3
 -8.747698602213e-05    6  3  4  4
  4.265258979004e-04    6  3  5  1
 -1.211111628622e-03    6  3  5  2
 -1.732159980867e-03    6  3  5  3
 -5.688005606360e-05    6  3  5  4
 -1.338429283455e-04    6  3  5  5
 -9.606317758663e-10    6  3  6  1
  2.863613390884e-09    6  3  6  2
  6.482153064073e-03    6  3  6  3
  1.008390449893e-03    6  4  1  1
 -1.174626988675e-04    6  4  2  1
  1.369982173567e-03    6  4  2  2
 -1.032574802676e-04    6  4  3  1
  2.094388112199e-03    6  4  3  2
 -1.027875062200e-03    6  4  3  3
 -2.551043681767e-03    6  4  4  1
 -2.273637011509e-04    6  4  4  2
 -8.787219626498e-05    6  4  4  3
 -1.058104422650e-03    6  4  4  4
  2.757212804418e-04    6  4  5  1
  8.181471207707e-05    6  4  5  2
 -5.688984525436e-05    6  4  5  3
 -5.271709681304e-04    6  4  5  4
 -3.090935160551e-04    6  4  5  5
 -8.021839546282e-09    6  4  6  1
  1.441597326271e-09    6  4  6  2
 -6.429087038788e-09    6  4  6  3
  6.482285821848e-03    6  4  6  4
  1.542643735042e-03    6  5  1  1
 -6.895606847571e-05    6  5  2  1
  2.303375960461e-03    6  5  2  2
  4.265648746036e-04    6  5  3  1
 -1.211325557153e-03    6  5  3  2
 -1.738293694641e-03    6  5  3  3
  2.757387288175e-04    6  5  4  1
  8.177785462957e-05    6  5  4  2
 -5.689433146889e-05    6  5  4  3
 -5.329820624710e-04    6  5  4  4
 -2.262630777983e-03    6  5  5  1
 -4.131701322455e-04    6  5  5  2
 -1.342440790715e-04    6  5  5  3
 -3.058885614702e-04    6  5  5  4
 -1.604855599302e-03    6  5  5  5
 -2.928430107812e-09    6  5  6  1
 -2.690855413520e-09    6  5  6  2
 -7.700199600747e-09    6  5  6  3
  4.297065373306e-09    6  5  6  4
  6.482292287914e-03    6  5  6  5
  2.955133103634e-01    6  6  1  1
 -2.625937131292e-09    6  6  2  1
  2.955133270767e-01    6  6  2  2
 -5.601352080795e-10    6  6  3  1
  2.083833237131e-09    6  6  3  2
  2.955133940706e-01    6  6  3  3
 -5.710711001847e-09    6  6  4  1
  1.049524637305e-09    6  6  4  2
 -4.658580216884e-09    6  6  4  3
  2.955134894970e-01    6  6  4  4
 -2.176806605798e-09    6  6  5  1
 -1.889056083215e-09    6  6  5  2
 -5.553804909667e-09    6  6  5  3
  2.936401830297e-09    6  6  5  4
  2.955134944835e-01    6  6  5  5
 -1.674193493655e-06    6  6  6  1
 -2.460676494667e-07    6  6  6  2
  7.464929891896e-08    6  6  6  3
 -6.317129304010e-07    6  6  6  4
 -1.138663907274e-06    6  6  6  5
  2.301540987263e-01    6  6  6  6
 -3.311439301314e+00    1  1  0  0
 -6.838599706535e-09    2  1  0  0
 -3.311439273720e+00    2  2  0  0
 -4.301930284520e-09    3  1  0  0
  3.995194234989e-09    3  2  0  0
 -3.311439135172e+00    3  3  0  0
 -1.527701129370e-08    4  1  0  0
  2.449081473491e-09    4  2  0  0
 -1.084932721971e-08    4  3  0  0
 -3.311438945940e+00    4  4  0  0
 -5.222916221995e-09    5  1  0  0
 -5.524548230684e-09    5  2  0  0
 -1.405825613621e-08    5  3  0  0
  1.050633481596e-08    5  4  0  0
 -3.311438950508e+00    5  5  0  0
  3.617592230700e-05    6  1  0  0
  5.316739090693e-06    6  2  0  0
 -1.596634709903e-06    6  3  0  0
  1.363898177600e-05    6  4  0  0
  2.459132772315e-05    6  5  0  0
 -1.659919918711e+00    6  6  0  0
    -76.103986540871   0  0  0  0
