#INFO: **** input file is /projects/bamu3429/BENCHMARK/fresh_atoms/MRPT/vqz/atoms/Cr_1/mrpt.py ****
import json
from pyscf import gto,scf,mcscf, fci, lo, ci, cc
from pyscf.scf import ROHF, UHF,ROKS
import numpy as np
import pandas as pd

# THIS IS WERE IT STARTS ====================================

df=json.load(open("../../../trail.json"))

spins={'Sc':1, 'Ti':2, 'V':3, 'Cr':6, 'Mn':5, 'Fe':4, 'Cu':1}

nd={'Sc':(1,0), 'Ti':(2,0), 'V':(3,0), 'Cr':(5,0), 'Mn':(5,0), 'Fe':(5,1), 'Cu':(5,5)}

cas={'Sc':3, 'Ti':4, 'V':5, 'Cr':6, 'Mn':7, 'Fe':8, 'Cu':11}

datacsv={}
for nm in ['atom','charge','method','basis','pseudopotential','hf',
           'totalenergy','totalenergy-stocherr','totalenergy-syserr']:
  datacsv[nm]=[]

basis='vqz'
el='Cr'
charge=1

mol=gto.Mole()
mol.ecp={}
mol.basis={}
mol.ecp[el]=gto.basis.parse_ecp(df[el]['ecp'])
mol.basis[el]=gto.basis.parse(df[el][basis])
mol.charge=charge
if el == 'Cr' or el == 'Cu':
  mol.spin=spins[el]-charge
else:
  mol.spin=spins[el]+charge
mol.build(atom="%s 0. 0. 0."%el,verbose=4)

m=ROHF(mol)
m.level_shift=1000.0
dm=m.from_chk("../../../../HF/atoms/"+el+basis+str(charge)+".chk")
hf=m.kernel(dm)
m.analyze()

from pyscf.shciscf import shci
mc = shci.SHCISCF(m, 6, cas[el]-charge)
#mc.fcisolver.conv_tol = 1e-14
mc.fcisolver.mpiprefix="srun -n20"
mc.fcisolver.num_thrds=12
mc.verbose = 4
cas=mc.kernel()[0]
 
from pyscf.icmpspt import icmpspt
pt=icmpspt.icmpspt(mc,rdmM=500, PTM=1000,\
                          pttype="MRLCC",\
                          third_order=True,\
                          fully_ic=True,\
                          do_dm4=True)

datacsv['atom'].append(el)
datacsv['charge'].append(charge)
datacsv['method'].append('MRPT')
datacsv['basis'].append(basis)
datacsv['pseudopotential'].append('trail')
datacsv['hf'].append(hf)
datacsv['totalenergy'].append(cas+pt)
datacsv['totalenergy-stocherr'].append(0.0)
datacsv['totalenergy-syserr'].append(0.0)
pd.DataFrame(datacsv).to_csv(el+".csv",index=False)

#INFO: ******************** input file end ********************


System: ('Linux', 'bnode0302.rc.int.colorado.edu', '3.10.0-514.41.1.el7.x86_64', '#1 SMP Wed Jan 17 10:26:16 EST 2018', 'x86_64', 'x86_64')  Threads 28
Python 2.7.11 (default, Mar 22 2016, 01:42:54) 
[GCC Intel(R) C++ gcc 4.8 mode]
numpy 1.11.1  scipy 0.17.1
Date: Thu Apr 19 10:27:10 2018
PySCF version 1.4.6
PySCF path  /projects/bamu3429/softwares/pyscf_uptodate/pyscf
GIT ORIG_HEAD f3591ef22170896a4cdc2aadaa6f5da388ffcadb
GIT HEAD      ref: refs/heads/master
GIT master branch  1847583fb1d2472321833d3c71c8b7008e5fabf5

[INPUT] VERBOSE 4
[INPUT] num atoms = 1
[INPUT] num electrons = 13
[INPUT] charge = 1
[INPUT] spin (= nelec alpha-beta = 2S) = 5
[INPUT] symmetry False subgroup None
[INPUT]  1 Cr     0.000000000000   0.000000000000   0.000000000000 AA    0.000000000000   0.000000000000   0.000000000000 Bohr
[INPUT] ---------------- BASIS SET ---------------- 
[INPUT] l, kappa, [nprim/nctr], expnt,             c_1 c_2 ...
[INPUT] Cr
[INPUT] 0    0    [12   /1   ]  41.45590127       0.010332
                                22.20089455       -0.091393
                                12.37022616       0.412444
                                7.15443966        -0.722409
                                3.63012556        0.039693
                                1.88942247        0.321055
                                1.04381355        0.652182
                                0.47307333        0.264443
                                0.22628807        -0.008646
                                0.10750747        0.012188
                                0.05101028        -0.00242
                                0.0242372         0.001733
[INPUT] 0    0    [12   /1   ]  41.45590127       -0.001971
                                22.20089455       0.019152
                                12.37022616       -0.094562
                                7.15443966        0.178991
                                3.63012556        -0.015716
                                1.88942247        -0.084882
                                1.04381355        -0.243744
                                0.47307333        -0.214624
                                0.22628807        0.055092
                                0.10750747        0.415903
                                0.05101028        0.543473
                                0.0242372         0.170131
[INPUT] 0    0    [12   /1   ]  41.45590127       -0.006227
                                22.20089455       0.071299
                                12.37022616       -0.410892
                                7.15443966        0.917584
                                3.63012556        -0.221951
                                1.88942247        -1.345636
                                1.04381355        -0.06992
                                0.47307333        0.755692
                                0.22628807        0.739114
                                0.10750747        0.112359
                                0.05101028        -0.547421
                                0.0242372         -0.284669
[INPUT] 0    0    [12   /1   ]  41.45590127       -0.006182
                                22.20089455       0.080693
                                12.37022616       -0.526764
                                7.15443966        1.364382
                                3.63012556        -0.812528
                                1.88942247        -2.239916
                                1.04381355        1.755013
                                0.47307333        1.667635
                                0.22628807        -1.426447
                                0.10750747        -1.028337
                                0.05101028        0.585035
                                0.0242372         0.607504
[INPUT] 0    0    [12   /1   ]  41.45590127       -2.6e-05
                                22.20089455       -0.072001
                                12.37022616       0.777417
                                7.15443966        -2.790553
                                3.63012556        4.512611
                                1.88942247        -0.555137
                                1.04381355        -4.087256
                                0.47307333        3.038568
                                0.22628807        0.867446
                                0.10750747        -2.097137
                                0.05101028        -0.014926
                                0.0242372         0.887447
[INPUT] 0    0    [1    /1   ]  0.0242372            1
[INPUT] 0    0    [1    /1   ]  0.01151614           1
[INPUT] 1    0    [12   /1   ]  28.88080716       -0.002973
                                13.19380569       0.044202
                                7.25722596        -0.232476
                                4.84342676        0.167654
                                2.76949909        0.179744
                                1.50719356        0.46058
                                0.72516508        0.338218
                                0.36385743        0.097984
                                0.16204617        0.012145
                                0.07447705        -0.000948
                                0.03422994        0.000821
                                0.01573221        -0.00022
[INPUT] 1    0    [12   /1   ]  28.88080716       0.000536
                                13.19380569       -0.009363
                                7.25722596        0.054752
                                4.84342676        -0.042977
                                2.76949909        -0.049244
                                1.50719356        -0.128712
                                0.72516508        -0.11682
                                0.36385743        0.044517
                                0.16204617        0.322192
                                0.07447705        0.482878
                                0.03422994        0.275764
                                0.01573221        0.025472
[INPUT] 1    0    [12   /1   ]  28.88080716       -0.000601
                                13.19380569       0.036419
                                7.25722596        -0.319649
                                4.84342676        0.265625
                                2.76949909        0.800568
                                1.50719356        0.1134
                                0.72516508        -0.940194
                                0.36385743        -0.356195
                                0.16204617        0.582848
                                0.07447705        0.421307
                                0.03422994        0.024352
                                0.01573221        0.004528
[INPUT] 1    0    [12   /1   ]  28.88080716       0.001606
                                13.19380569       0.051311
                                7.25722596        -0.743081
                                4.84342676        1.253251
                                2.76949909        1.03744
                                1.50719356        -1.776327
                                0.72516508        -0.552415
                                0.36385743        1.568643
                                0.16204617        -0.082341
                                0.07447705        -0.666944
                                0.03422994        -0.027493
                                0.01573221        -0.01175
[INPUT] 1    0    [12   /1   ]  28.88080716       0.013614
                                13.19380569       -0.041885
                                7.25722596        -1.136499
                                4.84342676        3.740841
                                2.76949909        -2.3618
                                1.50719356        -1.491548
                                0.72516508        2.916436
                                0.36385743        -1.186695
                                0.16204617        -1.003943
                                0.07447705        1.033584
                                0.03422994        -0.005965
                                0.01573221        0.033567
[INPUT] 1    0    [1    /1   ]  0.01573221           1
[INPUT] 1    0    [1    /1   ]  0.00723058           1
[INPUT] 2    0    [10   /1   ]  46.50908408       0.000358
                                21.60133229       -0.010512
                                11.03652449       0.11118
                                4.54288797        0.164184
                                2.18180243        0.267436
                                1.04009058        0.310836
                                0.48262909        0.28353
                                0.21570372        0.173079
                                0.10059873        0.057279
                                0.04653409        0.00937
[INPUT] 2    0    [10   /1   ]  46.50908408       0.000742
                                21.60133229       0.005602
                                11.03652449       -0.103642
                                4.54288797        -0.218406
                                2.18180243        -0.413398
                                1.04009058        -0.079422
                                0.48262909        0.294538
                                0.21570372        0.416612
                                0.10059873        0.235487
                                0.04653409        0.050239
[INPUT] 2    0    [10   /1   ]  46.50908408       -0.00365
                                21.60133229       0.008162
                                11.03652449       0.079193
                                4.54288797        0.433939
                                2.18180243        0.349419
                                1.04009058        -0.696856
                                0.48262909        -0.418157
                                0.21570372        0.309031
                                0.10059873        0.451053
                                0.04653409        0.102595
[INPUT] 2    0    [10   /1   ]  46.50908408       2e-06
                                21.60133229       -0.017312
                                11.03652449       0.289925
                                4.54288797        0.891377
                                2.18180243        -1.014212
                                1.04009058        -0.495442
                                0.48262909        0.952535
                                0.21570372        0.034125
                                0.10059873        -0.457461
                                0.04653409        -0.126771
[INPUT] 2    0    [1    /1   ]  0.04653409           1
[INPUT] 2    0    [1    /1   ]  0.02152533           1
[INPUT] 3    0    [1    /1   ]  3.786904             1
[INPUT] 3    0    [1    /1   ]  1.303251             1
[INPUT] 3    0    [1    /1   ]  0.448509             1
[INPUT] 3    0    [1    /1   ]  0.1543527            1
[INPUT] 4    0    [1    /1   ]  3.665821             1
[INPUT] 4    0    [1    /1   ]  1.288052             1
[INPUT] 4    0    [1    /1   ]  0.45258017           1
[INPUT] 5    0    [1    /1   ]  3.056986             1
[INPUT] 5    0    [1    /1   ]  1.07412687           1
nuclear repulsion = 0
number of shells = 29
number of NR pGTOs = 535
number of NR cGTOs = 135
basis = {'Cr': [[0, [41.45590127, 0.010332], [22.20089455, -0.091393], [12.37022616, 0.412444], [7.15443966, -0.722409], [3.63012556, 0.039693], [1.88942247, 0.321055], [1.04381355, 0.652182], [0.47307333, 0.264443], [0.22628807, -0.008646], [0.10750747, 0.012188], [0.05101028, -0.00242], [0.0242372, 0.001733]], [0, [41.45590127, -0.001971], [22.20089455, 0.019152], [12.37022616, -0.094562], [7.15443966, 0.178991], [3.63012556, -0.015716], [1.88942247, -0.084882], [1.04381355, -0.243744], [0.47307333, -0.214624], [0.22628807, 0.055092], [0.10750747, 0.415903], [0.05101028, 0.543473], [0.0242372, 0.170131]], [0, [41.45590127, -0.006227], [22.20089455, 0.071299], [12.37022616, -0.410892], [7.15443966, 0.917584], [3.63012556, -0.221951], [1.88942247, -1.345636], [1.04381355, -0.06992], [0.47307333, 0.755692], [0.22628807, 0.739114], [0.10750747, 0.112359], [0.05101028, -0.547421], [0.0242372, -0.284669]], [0, [41.45590127, -0.006182], [22.20089455, 0.080693], [12.37022616, -0.526764], [7.15443966, 1.364382], [3.63012556, -0.812528], [1.88942247, -2.239916], [1.04381355, 1.755013], [0.47307333, 1.667635], [0.22628807, -1.426447], [0.10750747, -1.028337], [0.05101028, 0.585035], [0.0242372, 0.607504]], [0, [41.45590127, -2.6e-05], [22.20089455, -0.072001], [12.37022616, 0.777417], [7.15443966, -2.790553], [3.63012556, 4.512611], [1.88942247, -0.555137], [1.04381355, -4.087256], [0.47307333, 3.038568], [0.22628807, 0.867446], [0.10750747, -2.097137], [0.05101028, -0.014926], [0.0242372, 0.887447]], [0, [0.0242372, 1.0]], [0, [0.01151614, 1.0]], [1, [28.88080716, -0.002973], [13.19380569, 0.044202], [7.25722596, -0.232476], [4.84342676, 0.167654], [2.76949909, 0.179744], [1.50719356, 0.46058], [0.72516508, 0.338218], [0.36385743, 0.097984], [0.16204617, 0.012145], [0.07447705, -0.000948], [0.03422994, 0.000821], [0.01573221, -0.00022]], [1, [28.88080716, 0.000536], [13.19380569, -0.009363], [7.25722596, 0.054752], [4.84342676, -0.042977], [2.76949909, -0.049244], [1.50719356, -0.128712], [0.72516508, -0.11682], [0.36385743, 0.044517], [0.16204617, 0.322192], [0.07447705, 0.482878], [0.03422994, 0.275764], [0.01573221, 0.025472]], [1, [28.88080716, -0.000601], [13.19380569, 0.036419], [7.25722596, -0.319649], [4.84342676, 0.265625], [2.76949909, 0.800568], [1.50719356, 0.1134], [0.72516508, -0.940194], [0.36385743, -0.356195], [0.16204617, 0.582848], [0.07447705, 0.421307], [0.03422994, 0.024352], [0.01573221, 0.004528]], [1, [28.88080716, 0.001606], [13.19380569, 0.051311], [7.25722596, -0.743081], [4.84342676, 1.253251], [2.76949909, 1.03744], [1.50719356, -1.776327], [0.72516508, -0.552415], [0.36385743, 1.568643], [0.16204617, -0.082341], [0.07447705, -0.666944], [0.03422994, -0.027493], [0.01573221, -0.01175]], [1, [28.88080716, 0.013614], [13.19380569, -0.041885], [7.25722596, -1.136499], [4.84342676, 3.740841], [2.76949909, -2.3618], [1.50719356, -1.491548], [0.72516508, 2.916436], [0.36385743, -1.186695], [0.16204617, -1.003943], [0.07447705, 1.033584], [0.03422994, -0.005965], [0.01573221, 0.033567]], [1, [0.01573221, 1.0]], [1, [0.00723058, 1.0]], [2, [46.50908408, 0.000358], [21.60133229, -0.010512], [11.03652449, 0.11118], [4.54288797, 0.164184], [2.18180243, 0.267436], [1.04009058, 0.310836], [0.48262909, 0.28353], [0.21570372, 0.173079], [0.10059873, 0.057279], [0.04653409, 0.00937]], [2, [46.50908408, 0.000742], [21.60133229, 0.005602], [11.03652449, -0.103642], [4.54288797, -0.218406], [2.18180243, -0.413398], [1.04009058, -0.079422], [0.48262909, 0.294538], [0.21570372, 0.416612], [0.10059873, 0.235487], [0.04653409, 0.050239]], [2, [46.50908408, -0.00365], [21.60133229, 0.008162], [11.03652449, 0.079193], [4.54288797, 0.433939], [2.18180243, 0.349419], [1.04009058, -0.696856], [0.48262909, -0.418157], [0.21570372, 0.309031], [0.10059873, 0.451053], [0.04653409, 0.102595]], [2, [46.50908408, 2e-06], [21.60133229, -0.017312], [11.03652449, 0.289925], [4.54288797, 0.891377], [2.18180243, -1.014212], [1.04009058, -0.495442], [0.48262909, 0.952535], [0.21570372, 0.034125], [0.10059873, -0.457461], [0.04653409, -0.126771]], [2, [0.04653409, 1.0]], [2, [0.02152533, 1.0]], [3, [3.786904, 1.0]], [3, [1.303251, 1.0]], [3, [0.448509, 1.0]], [3, [0.1543527, 1.0]], [4, [3.665821, 1.0]], [4, [1.288052, 1.0]], [4, [0.45258017, 1.0]], [5, [3.056986, 1.0]], [5, [1.07412687, 1.0]]]}
ecp = {'Cr': [10, [[-1, [[], [[13.07675203, 14.0]], [[15.15807582, 1258.1555038], [4.62785686, -98.60998187], [15.41136599, -6552.46055066], [15.38690637, 5353.09061557]], [[5.24897308, 183.07452839]]]], [0, [[], [], [[9.77680844, -91901.2080948], [9.95980111, 96320.14803227], [8.62275214, 3928.3135917], [12.29288144, -10977.62459544], [18.41316592, -1741.60409682], [16.38541961, 4413.26493033]], []]], [1, [[], [], [[12.00099996, -22156.17142851], [11.46524435, 21551.07876111], [16.23852226, 3703.78784703], [18.43861108, -1424.18632323], [8.88877941, -1964.93568469], [7.52644784, 317.50498882]], []]], [2, [[], [], [[11.1066837, -5435.29666496], [8.49801115, 7350.69608766], [12.28065533, 2443.80334995], [8.1885354, -5401.76770998], [14.34306836, 3881.23075486], [15.24784181, -2855.87137953]], []]]]]}
CPU time:         3.59


******** <class 'pyscf.scf.rohf.ROHF'> flags ********
method = ROHF
initial guess = minao
damping factor = 0
level shift factor = 1000.0
DIIS = <class 'pyscf.scf.diis.CDIIS'>
DIIS start cycle = 1
DIIS space = 8
SCF tol = 1e-09
SCF gradient tol = None
max. SCF cycles = 50
direct_scf = True
direct_scf_tol = 1e-13
chkfile to save SCF result = /rc_scratch/bamu3429/tmpCVpCY0
max_memory 4000 MB (current use 120 MB)
num. doubly occ = 4  num. singly occ = 5
Set gradient conv threshold to 3.16228e-05
init E= -85.9986162175289
  HOMO = 499.778669490752  LUMO = 999.801441535554
cycle= 1 E= -85.998616217529  delta_E= -5.68e-14  |g|= 8.46e-06  |ddm|= 2.78e-08
  HOMO = -0.22133050938192  LUMO = -0.198558464468548
Extra cycle  E= -85.9986162174279  delta_E= 1.01e-10  |g|= 6.96e-06  |ddm|= 5.33e-05
converged SCF energy = -85.9986162174279
**** MO energy ****
                Roothaan           | alpha              | beta
MO #1   energy= -3.67884613041045  | -3.86523321911103  | -3.49245904170987  occ= 2
MO #2   energy= -2.37735965895476  | -2.60618586039823  | -2.14853345751129  occ= 2
MO #3   energy= -2.37735954455501  | -2.60618559225243  | -2.14853349685761  occ= 2
MO #4   energy= -2.37735946570577  | -2.60618540774951  | -2.14853352366204  occ= 2
MO #5   energy= -0.221330544708281 | -0.646413158985644 | 0.203752184386746  occ= 1
MO #6   energy= -0.221330539718096 | -0.646413163681911 | 0.203752188018213  occ= 1
MO #7   energy= -0.221330530485056 | -0.646413117700708 | 0.203752189652786  occ= 1
MO #8   energy= -0.221330512523066 | -0.64641307800564  | 0.20375219716782   occ= 1
MO #9   energy= -0.22133050938192  | -0.646413091085391 | 0.203752202772511  occ= 1
MO #10  energy= -0.198558464468548 | -0.214763898987423 | -0.182353030245674 occ= 0
MO #11  energy= -0.111686621083755 | -0.117743382292038 | -0.105629859875591 occ= 0
MO #12  energy= -0.111686571420261 | -0.117743426447303 | -0.105629716393235 occ= 0
MO #13  energy= -0.111686537328841 | -0.117743457034867 | -0.105629617622995 occ= 0
MO #14  energy= -0.0720390679391568 | -0.074747915990124 | -0.069330219890536 occ= 0
MO #15  energy= -0.0503286343081034 | -0.0520531878020102 | -0.0486040808142021 occ= 0
MO #16  energy= -0.0503286220574192 | -0.0520531996298438 | -0.0486040444849978 occ= 0
MO #17  energy= -0.0503286136209883 | -0.0520532077593362 | -0.0486040194826444 occ= 0
MO #18  energy= -0.0474479299173035 | -0.0485323915789953 | -0.0463635937425051 occ= 0
MO #19  energy= -0.0474479253176913 | -0.0485323869158635 | -0.046363588271922 occ= 0
MO #20  energy= -0.0474479063143034 | -0.0485323690142151 | -0.0463635713275961 occ= 0
MO #21  energy= -0.0474478797506383 | -0.0485323434564808 | -0.0463635457150605 occ= 0
MO #22  energy= -0.0474478776076383 | -0.0485323413422987 | -0.0463635434095203 occ= 0
MO #23  energy= 0.011272524572248  | 0.00248053396410877 | 0.020064515180351  occ= 0
MO #24  energy= 0.0112725627710361 | 0.00248045802928395 | 0.0200646675127899 occ= 0
MO #25  energy= 0.0112725891000681 | 0.00248040585020254 | 0.020064772349877  occ= 0
MO #26  energy= 0.0520769586980999 | 0.0463600874071794 | 0.0577935918341852 occ= 0
MO #27  energy= 0.0520769688707601 | 0.046360096537108  | 0.0577936062084306 occ= 0
MO #28  energy= 0.0520770149222698 | 0.0463601326881021 | 0.0577936534348507 occ= 0
MO #29  energy= 0.0520770762761459 | 0.0463601836071023 | 0.05779372592738   occ= 0
MO #30  energy= 0.0520770818876882 | 0.0463601877609924 | 0.0577937306489503 occ= 0
MO #31  energy= 0.0686998711227983 | 0.0587165087172489 | 0.078683233524969  occ= 0
MO #32  energy= 0.374980867573762  | 0.367190893273119  | 0.382770841874407  occ= 0
MO #33  energy= 0.374980873219315  | 0.367190897518919  | 0.382770848919714  occ= 0
MO #34  energy= 0.374980968005557  | 0.367190966260176  | 0.382770969750938  occ= 0
MO #35  energy= 0.374981018759103  | 0.367191003693505  | 0.382771033824698  occ= 0
MO #36  energy= 0.374981044360329  | 0.367191022319548  | 0.382771066401113  occ= 0
MO #37  energy= 0.374981178961797  | 0.36719112086636   | 0.382771237057238  occ= 0
MO #38  energy= 0.374981180432917  | 0.367191121958646  | 0.38277123890718   occ= 0
MO #39  energy= 0.467434999139899  | 0.44881577595776   | 0.486054222323571  occ= 0
MO #40  energy= 0.569738420764084  | 0.523090150287662  | 0.616386998221145  occ= 0
MO #41  energy= 0.569738449710918  | 0.523090169070561  | 0.616387039307686  occ= 0
MO #42  energy= 0.569738578678603  | 0.523090249641822  | 0.616387203856511  occ= 0
MO #43  energy= 0.569738748988877  | 0.523090358521617  | 0.616387435346426  occ= 0
MO #44  energy= 0.569738766356303  | 0.523090368567446  | 0.616387453258938  occ= 0
MO #45  energy= 0.921202645380928  | 0.878585860507398  | 0.963819430254462  occ= 0
MO #46  energy= 0.921202823362871  | 0.878585844576371  | 0.963819802149375  occ= 0
MO #47  energy= 0.921202945858585  | 0.878585833660495  | 0.963820058056667  occ= 0
MO #48  energy= 1.555185671522     | 1.50496488475689   | 1.6054064582871    occ= 0
MO #49  energy= 1.55518568043088   | 1.50496488977579   | 1.60540647108598   occ= 0
MO #50  energy= 1.55518583085926   | 1.50496497253234   | 1.60540668918619   occ= 0
MO #51  energy= 1.55518591121905   | 1.50496501725463   | 1.60540680518347   occ= 0
MO #52  energy= 1.55518595181761   | 1.50496503962863   | 1.60540686400659   occ= 0
MO #53  energy= 1.55518616521254   | 1.5049651578685    | 1.60540717255657   occ= 0
MO #54  energy= 1.55518616753647   | 1.50496515916498   | 1.60540717590796   occ= 0
MO #55  energy= 1.90163116794992   | 1.88349972399383   | 1.919762611906     occ= 0
MO #56  energy= 1.90163117014492   | 1.88349972566486   | 1.91976261462497   occ= 0
MO #57  energy= 1.9016313394474    | 1.88349985250815   | 1.91976282638665   occ= 0
MO #58  energy= 1.90163137328903   | 1.88349987806564   | 1.9197628685124    occ= 0
MO #59  energy= 1.90163144316612   | 1.88349993042841   | 1.91976295590383   occ= 0
MO #60  energy= 1.90163156736255   | 1.88350002390893   | 1.91976311081618   occ= 0
MO #61  energy= 1.90163157781023   | 1.88350003174456   | 1.91976312387591   occ= 0
MO #62  energy= 1.90163180515093   | 1.88350020256608   | 1.91976340773577   occ= 0
MO #63  energy= 1.90163180548477   | 1.88350020281824   | 1.91976340815129   occ= 0
MO #64  energy= 2.35290016475825   | 2.30613341239433   | 2.39966691712247   occ= 0
MO #65  energy= 2.84465572273378   | 2.7631331219122    | 2.92617826703748   occ= 0
MO #66  energy= 2.84465574138572   | 2.76313313892882   | 2.92617828757423   occ= 0
MO #67  energy= 2.84465581963672   | 2.76313321652117   | 2.92617836490453   occ= 0
MO #68  energy= 2.84465592643111   | 2.76313331845151   | 2.92617847629207   occ= 0
MO #69  energy= 2.84465593613508   | 2.76313332858498   | 2.92617848505978   occ= 0
MO #70  energy= 3.95206550727286   | 3.89939247356932   | 4.0047385409764    occ= 0
MO #71  energy= 3.95206570055814   | 3.89939269298332   | 4.00473870813296   occ= 0
MO #72  energy= 3.95206583351008   | 3.89939284389288   | 4.00473882312727   occ= 0
MO #73  energy= 4.48544156420478   | 4.38556130400655   | 4.58532182440303   occ= 0
MO #74  energy= 4.48544156924865   | 4.38556130916141   | 4.58532182933588   occ= 0
MO #75  energy= 4.48544165756791   | 4.38556140478632   | 4.58532191034952   occ= 0
MO #76  energy= 4.48544170395472   | 4.3855614537084    | 4.58532195420103   occ= 0
MO #77  energy= 4.48544172773063   | 4.38556147936795   | 4.58532197609331   occ= 0
MO #78  energy= 4.48544185178668   | 4.38556161169915   | 4.5853220918742    occ= 0
MO #79  energy= 4.48544185313165   | 4.38556161313836   | 4.58532209312494   occ= 0
MO #80  energy= 5.89880687490225   | 5.87105284599724   | 5.92656090380724   occ= 0
MO #81  energy= 5.89880687540009   | 5.87105284640792   | 5.92656090439226   occ= 0
MO #82  energy= 5.89880704486538   | 5.87105298564581   | 5.92656110408496   occ= 0
MO #83  energy= 5.89880705665125   | 5.87105299535133   | 5.92656111795117   occ= 0
MO #84  energy= 5.89880714921892   | 5.87105307140563   | 5.92656122703219   occ= 0
MO #85  energy= 5.8988072150954    | 5.87105312559891   | 5.92656130459189   occ= 0
MO #86  energy= 5.89880724026207   | 5.8710531462726    | 5.92656133425156   occ= 0
MO #87  energy= 5.89880738945258   | 5.87105326894965   | 5.92656150995551   occ= 0
MO #88  energy= 5.89880739149545   | 5.87105327062842   | 5.92656151236249   occ= 0
MO #89  energy= 5.89880760808643   | 5.87105344868632   | 5.92656176748653   occ= 0
MO #90  energy= 5.89880760813071   | 5.87105344872277   | 5.92656176753865   occ= 0
MO #91  energy= 6.1480775770057    | 6.09454890331863   | 6.20160625069278   occ= 0
MO #92  energy= 6.14807757863406   | 6.09454890466084   | 6.20160625260727   occ= 0
MO #93  energy= 6.14807770372244   | 6.09454900916159   | 6.2016063982833    occ= 0
MO #94  energy= 6.14807772877862   | 6.09454902995773   | 6.20160642759951   occ= 0
MO #95  energy= 6.14807778040326   | 6.09454907307606   | 6.20160648773047   occ= 0
MO #96  energy= 6.14807787227733   | 6.0945491495453    | 6.20160659500935   occ= 0
MO #97  energy= 6.14807787999573   | 6.09454915598577   | 6.20160660400571   occ= 0
MO #98  energy= 6.14807804809532   | 6.09454929610598   | 6.20160680008468   occ= 0
MO #99  energy= 6.14807804834229   | 6.09454929631069   | 6.20160680037389   occ= 0
MO #100 energy= 8.37172335639001   | 8.30795353252282   | 8.43549318159886   occ= 0
MO #101 energy= 8.37172335935609   | 8.30795353355983   | 8.43549318648979   occ= 0
MO #102 energy= 8.37172338994293   | 8.30795352060564   | 8.43549326060401   occ= 0
MO #103 energy= 8.37172340975786   | 8.30795350794083   | 8.4354933128967    occ= 0
MO #104 energy= 8.37172341606463   | 8.30795350746342   | 8.43549332598051   occ= 0
MO #105 energy= 9.03486783604885   | 8.97924016623638   | 9.09049550586135   occ= 0
MO #106 energy= 12.2630441418583   | 12.1780402362698   | 12.3480480474467   occ= 0
MO #107 energy= 12.2630441426882   | 12.1780402363917   | 12.3480480489846   occ= 0
MO #108 energy= 12.2630442179935   | 12.1780402411039   | 12.3480481948831   occ= 0
MO #109 energy= 12.2630442323043   | 12.1780402416903   | 12.3480482229183   occ= 0
MO #110 energy= 12.2630442607557   | 12.1780402442637   | 12.3480482772477   occ= 0
MO #111 energy= 12.2630443136486   | 12.1780402456155   | 12.3480483816817   occ= 0
MO #112 energy= 12.2630443168315   | 12.178040246146    | 12.348048387517    occ= 0
MO #113 energy= 12.6374571659531   | 12.5818866300089   | 12.6930277018974   occ= 0
MO #114 energy= 12.6374572042573   | 12.5818865919068   | 12.6930278166077   occ= 0
MO #115 energy= 12.6374572597989   | 12.5818865363135   | 12.6930279832843   occ= 0
MO #116 energy= 16.9326918026835   | 16.8678413836552   | 16.9975422217117   occ= 0
MO #117 energy= 16.9326918027954   | 16.8678413837017   | 16.9975422218891   occ= 0
MO #118 energy= 16.9326918793078   | 16.8678414151448   | 16.9975423434707   occ= 0
MO #119 energy= 16.9326918828507   | 16.8678414165756   | 16.9975423491258   occ= 0
MO #120 energy= 16.9326919244558   | 16.8678414339135   | 16.9975424149981   occ= 0
MO #121 energy= 16.932691948154    | 16.8678414434694   | 16.9975424528386   occ= 0
MO #122 energy= 16.9326919593895   | 16.8678414482742   | 16.9975424705047   occ= 0
MO #123 energy= 16.93269201681     | 16.8678414713616   | 16.9975425622584   occ= 0
MO #124 energy= 16.9326920175234   | 16.8678414716863   | 16.9975425633606   occ= 0
MO #125 energy= 17.8565956591947   | 17.8090535969264   | 17.904137721463    occ= 0
MO #126 energy= 17.8565956591972   | 17.8090535969258   | 17.9041377214687   occ= 0
MO #127 energy= 17.8565956669782   | 17.809053588105    | 17.9041377458514   occ= 0
MO #128 energy= 17.8565956670774   | 17.8090535880511   | 17.9041377461037   occ= 0
MO #129 energy= 17.8565956721742   | 17.8090535818343   | 17.9041377625141   occ= 0
MO #130 energy= 17.8565956732308   | 17.8090535809179   | 17.9041377655436   occ= 0
MO #131 energy= 17.8565956753079   | 17.8090535781269   | 17.9041377724889   occ= 0
MO #132 energy= 17.8565956788764   | 17.8090535743713   | 17.9041377833816   occ= 0
MO #133 energy= 17.8565956791935   | 17.8090535738823   | 17.9041377845047   occ= 0
MO #134 energy= 17.8565956857881   | 17.8090535671413   | 17.904137804435    occ= 0
MO #135 energy= 17.8565956857981   | 17.8090535671232   | 17.904137804473    occ= 0
 ** Mulliken pop on meta-lowdin orthogonal AOs  **
 ** Mulliken pop  **
pop of  0Cr 3s        1.99991
pop of  0Cr 4s        0.00000
pop of  0Cr 5s        0.00008
pop of  0Cr 6s        0.00000
pop of  0Cr 7s        0.00000
pop of  0Cr 8s        0.00000
pop of  0Cr 9s        0.00000
pop of  0Cr 3px       1.99985
pop of  0Cr 3py       1.99985
pop of  0Cr 3pz       1.99985
pop of  0Cr 4px       0.00007
pop of  0Cr 4py       0.00007
pop of  0Cr 4pz       0.00007
pop of  0Cr 5px       0.00006
pop of  0Cr 5py       0.00006
pop of  0Cr 5pz       0.00006
pop of  0Cr 6px       0.00001
pop of  0Cr 6py       0.00001
pop of  0Cr 6pz       0.00001
pop of  0Cr 7px       0.00000
pop of  0Cr 7py       0.00000
pop of  0Cr 7pz       0.00000
pop of  0Cr 8px       0.00000
pop of  0Cr 8py       0.00000
pop of  0Cr 8pz       0.00000
pop of  0Cr 9px       0.00000
pop of  0Cr 9py       0.00000
pop of  0Cr 9pz       0.00000
pop of  0Cr 3dxy      0.99964
pop of  0Cr 3dyz      0.99964
pop of  0Cr 3dz^2     0.99964
pop of  0Cr 3dxz      0.99964
pop of  0Cr 3dx2-y2    0.99964
pop of  0Cr 4dxy      0.00026
pop of  0Cr 4dyz      0.00026
pop of  0Cr 4dz^2     0.00026
pop of  0Cr 4dxz      0.00026
pop of  0Cr 4dx2-y2    0.00026
pop of  0Cr 5dxy      0.00002
pop of  0Cr 5dyz      0.00002
pop of  0Cr 5dz^2     0.00002
pop of  0Cr 5dxz      0.00002
pop of  0Cr 5dx2-y2    0.00002
pop of  0Cr 6dxy      0.00001
pop of  0Cr 6dyz      0.00001
pop of  0Cr 6dz^2     0.00001
pop of  0Cr 6dxz      0.00001
pop of  0Cr 6dx2-y2    0.00001
pop of  0Cr 7dxy      0.00006
pop of  0Cr 7dyz      0.00006
pop of  0Cr 7dz^2     0.00006
pop of  0Cr 7dxz      0.00006
pop of  0Cr 7dx2-y2    0.00006
pop of  0Cr 8dxy      0.00001
pop of  0Cr 8dyz      0.00001
pop of  0Cr 8dz^2     0.00001
pop of  0Cr 8dxz      0.00001
pop of  0Cr 8dx2-y2    0.00001
pop of  0Cr 4fy^3     0.00000
pop of  0Cr 4fxyz     0.00000
pop of  0Cr 4fyz^2    0.00000
pop of  0Cr 4fz^3     0.00000
pop of  0Cr 4fxz^2    0.00000
pop of  0Cr 4fzx^2    0.00000
pop of  0Cr 4fx^3     0.00000
pop of  0Cr 5fy^3     0.00000
pop of  0Cr 5fxyz     0.00000
pop of  0Cr 5fyz^2    0.00000
pop of  0Cr 5fz^3     0.00000
pop of  0Cr 5fxz^2    0.00000
pop of  0Cr 5fzx^2    0.00000
pop of  0Cr 5fx^3     0.00000
pop of  0Cr 6fy^3     0.00000
pop of  0Cr 6fxyz     0.00000
pop of  0Cr 6fyz^2    0.00000
pop of  0Cr 6fz^3     0.00000
pop of  0Cr 6fxz^2    0.00000
pop of  0Cr 6fzx^2    0.00000
pop of  0Cr 6fx^3     0.00000
pop of  0Cr 7fy^3     0.00000
pop of  0Cr 7fxyz     0.00000
pop of  0Cr 7fyz^2    0.00000
pop of  0Cr 7fz^3     0.00000
pop of  0Cr 7fxz^2    0.00000
pop of  0Cr 7fzx^2    0.00000
pop of  0Cr 7fx^3     0.00000
pop of  0Cr 5g-4      0.00000
pop of  0Cr 5g-3      0.00000
pop of  0Cr 5g-2      0.00000
pop of  0Cr 5g-1      0.00000
pop of  0Cr 5g 0      0.00000
pop of  0Cr 5g 1      0.00000
pop of  0Cr 5g 2      0.00000
pop of  0Cr 5g 3      0.00000
pop of  0Cr 5g 4      0.00000
pop of  0Cr 6g-4      0.00000
pop of  0Cr 6g-3      0.00000
pop of  0Cr 6g-2      0.00000
pop of  0Cr 6g-1      0.00000
pop of  0Cr 6g 0      0.00000
pop of  0Cr 6g 1      0.00000
pop of  0Cr 6g 2      0.00000
pop of  0Cr 6g 3      0.00000
pop of  0Cr 6g 4      0.00000
pop of  0Cr 7g-4      0.00000
pop of  0Cr 7g-3      0.00000
pop of  0Cr 7g-2      0.00000
pop of  0Cr 7g-1      0.00000
pop of  0Cr 7g 0      0.00000
pop of  0Cr 7g 1      0.00000
pop of  0Cr 7g 2      0.00000
pop of  0Cr 7g 3      0.00000
pop of  0Cr 7g 4      0.00000
pop of  0Cr 6h-5      0.00000
pop of  0Cr 6h-4      0.00000
pop of  0Cr 6h-3      0.00000
pop of  0Cr 6h-2      0.00000
pop of  0Cr 6h-1      0.00000
pop of  0Cr 6h 0      0.00000
pop of  0Cr 6h 1      0.00000
pop of  0Cr 6h 2      0.00000
pop of  0Cr 6h 3      0.00000
pop of  0Cr 6h 4      0.00000
pop of  0Cr 6h 5      0.00000
pop of  0Cr 7h-5      0.00000
pop of  0Cr 7h-4      0.00000
pop of  0Cr 7h-3      0.00000
pop of  0Cr 7h-2      0.00000
pop of  0Cr 7h-1      0.00000
pop of  0Cr 7h 0      0.00000
pop of  0Cr 7h 1      0.00000
pop of  0Cr 7h 2      0.00000
pop of  0Cr 7h 3      0.00000
pop of  0Cr 7h 4      0.00000
pop of  0Cr 7h 5      0.00000
 ** Mulliken atomic charges  **
charge of  0Cr =      1.00000

******** <class 'pyscf.mcscf.mc1step.CASSCF'> flags ********
CAS (5e+0e, 6o), ncore = 4, nvir = 125
max_cycle_macro = 50
max_cycle_micro = 4
conv_tol = 1e-07
conv_tol_grad = None
orbital rotation max_stepsize = 0.02
augmented hessian ah_max_cycle = 30
augmented hessian ah_conv_tol = 1e-12
augmented hessian ah_linear dependence = 1e-14
augmented hessian ah_level shift = 0
augmented hessian ah_start_tol = 2.5
augmented hessian ah_start_cycle = 3
augmented hessian ah_grad_trust_region = 3
kf_trust_region = 3
kf_interval = 4
ci_response_space = 4
ci_grad_trust_region = 3
with_dep4 0
natorb = False
canonicalization = True
sorting_mo_energy = False
chkfile = ./scratch/3490/tmpBHUNws
max_memory 4000 MB (current use 762 MB)
internal_rotation = False

******** SHCI flags ********
executable             = /home/bamu3429/softwares/dice/Dice
mpiprefix              = srun -n20
scratchDirectory       = ./scratch/3490
integralFile           = ./FCIDUMP
configFile             = ./input.dat
outputFile             = ./output.dat
maxIter                = 6
sweep_iter             = []
sweep_epsilon          = []
nPTiter                = 0
Stochastic             = True
fullrestart            = False
restart                = False
num_thrds              = 12
memory                 = None

CASCI E = -85.9986162174286  S^2 = 8.7500000
Set conv_tol_grad to 0.000316228
macro iter 1 (1 JK  1 micro), CASSCF E = -85.9986162174286  dE = 0  S^2 = 8.7500000
               |grad[o]|=5.63e-06  |grad[c]|= None  |ddm|=    0
1-step CASSCF converged in 1 macro (1 JK 1 micro) steps
CASSCF canonicalization
CASSCF energy = -85.9986162174286


--------------------------------------------------
                 ICMPSPT CALCULATION              
--------------------------------------------------

Perturbation type: MRLCC
With fully internally contracted scheme
With third order correction

Preparing necessary RDMs
......production of RDMs took       2.26 sec
Reading binary 4RDM from DICE
......reading the RDM took          1.01 sec

(GOOD) Trace 4RDM:    120.0 =    5*    4*    3*    2
(GOOD) Trace 3RDM:     60.0 =    5*    4*    3
(GOOD) Trace 2RDM:     20.0 =    5*    4
(GOOD) Trace 1RDM:      5.0 =    5

Producing the integrals
......production of INT took     247.92 sec

Energy_core =  -76.10398654
Energy      =  -85.99861622

WARNING: Have to use natural orbitals from CAASCF
         offdiagonal elements:    0.65995556

Basic ingredients written to int/
......savings of INGREDIENTS took      67.27 sec

Second-order:
perturber CCVV --        -0.122445830
perturber CCAV --        -0.052485974
perturber ACVV --        -0.182450028
perturber CCAA --        -0.023740662
perturber AAVV --        -0.088215901
perturber CAAV --        -0.098042934
perturber AAAV --        -0.000000000
perturber AAAC --        -0.000000032
Total:                   -0.567381361

Third-order:              0.003505952

Total PT       --        -0.563875409

