 &FCI NORB=9 ,NELEC=9 ,MS2=3,
  ORBSYM=1,1,1,1,1,1,1,1,1,
  ISYM=1,
 &END
  6.530438321090e-01    1  1  1  1
  2.954431482130e-02    2  1  2  1
  5.886039666367e-01    2  2  1  1
  6.500310387090e-01    2  2  2  2
  2.954431482130e-02    3  1  3  1
 -1.391000574091e-09    3  2  2  2
  2.885991296058e-02    3  2  3  2
  5.886039666367e-01    3  3  1  1
  5.923104490551e-01    3  3  2  2
  1.391005480294e-09    3  3  3  2
  6.500310387090e-01    3  3  3  3
  1.698429650995e-02    4  1  1  1
  7.578009341229e-03    4  1  2  2
  7.578009341229e-03    4  1  3  3
  7.833483112287e-03    4  1  4  1
 -1.668692658215e-03    4  2  2  1
 -1.655170394080e-07    4  2  3  1
  1.925782239232e-03    4  2  4  2
  1.655170394148e-07    4  3  2  1
 -1.668692658215e-03    4  3  3  1
  1.925782239232e-03    4  3  4  3
  2.533243970956e-01    4  4  1  1
  2.301757659837e-01    4  4  2  2
  2.301757659837e-01    4  4  3  3
  1.099793005050e-02    4  4  4  1
  2.818637321614e-01    4  4  4  4
  5.890234351957e-05    5  1  2  2
  3.716916737146e-04    5  1  3  2
 -5.890234352123e-05    5  1  3  3
  9.551002922058e-03    5  1  5  1
 -3.389141549621e-04    5  2  2  1
 -1.878858257045e-03    5  2  3  1
  1.011268020495e-04    5  2  4  2
  5.561588944041e-04    5  2  4  3
  4.987763812614e-03    5  2  5  2
 -1.878858257045e-03    5  3  2  1
  3.389141549621e-04    5  3  3  1
  5.561588944041e-04    5  3  4  2
 -1.011268020495e-04    5  3  4  3
  4.987763812614e-03    5  3  5  3
  4.398426211485e-04    5  4  2  2
  2.449797122402e-03    5  4  3  2
 -4.398426211465e-04    5  4  3  3
  4.455430333059e-03    5  4  5  1
  1.184326219595e-02    5  4  5  4
  4.127792527406e-01    5  5  1  1
  3.468905264540e-01    5  5  2  2
  3.468905264540e-01    5  5  3  3
  4.293244281221e-02    5  5  4  1
  3.465018149129e-01    5  5  4  4
  7.096888345353e-01    5  5  5  5
 -3.716925412756e-04    6  1  2  2
  5.890256647984e-05    6  1  3  2
  3.716925412749e-04    6  1  3  3
 -4.324484911229e-12    6  1  5  1
 -1.781814061831e-08    6  1  5  4
  9.551006376844e-03    6  1  6  1
  1.878863359710e-03    6  2  2  1
 -3.389132065155e-04    6  2  3  1
 -5.561616799719e-04    6  2  4  2
  1.011262952364e-04    6  2  4  3
 -1.125127507783e-09    6  2  5  2
 -2.417564831594e-03    6  2  5  3
  4.987771013980e-03    6  2  6  2
 -3.389132065155e-04    6  3  2  1
 -1.878863359710e-03    6  3  3  1
  1.011262952364e-04    6  3  4  2
  5.561616799719e-04    6  3  4  3
  2.417564831594e-03    6  3  5  2
 -1.125127491946e-09    6  3  5  3
  4.987771013980e-03    6  3  6  3
 -2.449806014898e-03    6  4  2  2
  4.398409009011e-04    6  4  3  2
  2.449806014898e-03    6  4  3  3
  1.810026998040e-08    6  4  5  1
  2.725802971124e-10    6  4  5  4
  4.455429704568e-03    6  4  6  1
  1.184325369087e-02    6  4  6  4
  2.326614248353e-10    6  5  1  1
 -7.516978982932e-10    6  5  2  2
 -7.516978909776e-10    6  5  3  3
  3.088175903446e-10    6  5  4  1
  9.271740425660e-10    6  5  4  4
  2.968543156262e-09    6  5  5  5
  1.504962682526e-02    6  5  6  5
  4.127792805303e-01    6  6  1  1
  3.468905490684e-01    6  6  2  2
  3.468905490684e-01    6  6  3  3
  4.293244714560e-02    6  6  4  1
  3.465018176010e-01    6  6  4  4
  6.795896286511e-01    6  6  5  5
  2.968543307122e-09    6  6  6  5
  7.096889300681e-01    6  6  6  6
  2.665569881374e-05    7  1  2  1
  9.081617458088e-03    7  1  3  1
 -1.903572605897e-06    7  1  4  2
 -3.894779296290e-04    7  1  4  3
  1.886849523891e-03    7  1  5  2
 -3.177954550245e-04    7  1  5  3
  3.177964411165e-04    7  1  6  2
  1.886846032869e-03    7  1  6  3
  1.309162436020e-02    7  1  7  1
  4.509945007044e-04    7  2  1  1
  6.881732725538e-04    7  2  2  2
  1.154205466822e-02    7  2  3  2
  6.029163566844e-04    7  2  3  3
 -6.530029155602e-05    7  2  4  1
 -1.870074433317e-04    7  2  4  4
 -1.814531426579e-03    7  2  5  1
 -2.448794640674e-03    7  2  5  4
 -4.519768796909e-04    7  2  5  5
 -3.062589701693e-04    7  2  6  1
 -4.180097088829e-04    7  2  6  4
 -9.737123963733e-09    7  2  6  5
 -4.519847574531e-04    7  2  6  6
  1.216952083868e-02    7  2  7  2
  1.171079728235e-01    7  3  1  1
  1.466539273671e-01    7  3  2  2
  4.263111790139e-05    7  3  3  2
  1.697408106247e-01    7  3  3  3
 -1.402624202732e-02    7  3  4  1
 -3.839218080097e-02    7  3  4  4
  3.062665768848e-04    7  3  5  1
  4.180141563319e-04    7  3  5  4
 -9.534481935456e-02    7  3  5  5
 -1.814571487753e-03    7  3  6  1
 -2.448816000015e-03    7  3  6  4
  4.289962325583e-09    7  3  6  5
 -9.534485270372e-02    7  3  6  6
  5.896704517200e-04    7  3  7  2
  1.492799355130e-01    7  3  7  3
  3.648876082177e-06    7  4  2  1
  8.745789377610e-04    7  4  3  1
 -1.434739431956e-05    7  4  4  2
 -3.006590560483e-03    7  4  4  3
 -3.481935092174e-04    7  4  5  2
  6.503604388684e-05    7  4  5  3
 -6.503253081440e-05    7  4  6  2
 -3.482119161297e-04    7  4  6  3
 -6.173654510792e-05    7  4  7  1
  6.055229104753e-03    7  4  7  4
  3.434963336738e-03    7  5  2  1
 -5.931818054496e-04    7  5  3  1
 -8.785297842073e-04    7  5  4  2
  1.556156369989e-04    7  5  4  3
 -3.675881637863e-05    7  5  5  2
 -8.038619094261e-03    7  5  5  3
  3.696111076663e-03    7  5  6  2
 -1.755738808646e-05    7  5  6  3
  3.712652109199e-04    7  5  7  1
 -1.349996552992e-04    7  5  7  4
  1.833380767971e-02    7  5  7  5
  5.931780815677e-04    7  6  2  1
  3.434989578853e-03    7  6  3  1
 -1.556106360886e-04    7  6  4  2
 -8.785582250329e-04    7  6  4  3
 -3.696164145951e-03    7  6  5  2
  1.758566263772e-05    7  6  5  3
 -3.678075304600e-05    7  6  6  2
 -8.038692339553e-03    7  6  6  3
 -2.251166245284e-03    7  6  7  1
  7.616044771767e-04    7  6  7  4
 -4.152073573693e-08    7  6  7  5
  1.833403189475e-02    7  6  7  6
  5.192605463893e-01    7  7  1  1
  4.780461069156e-01    7  7  2  2
  1.452970740180e-04    7  7  3  2
  5.093654082352e-01    7  7  3  3
  2.887606346036e-02    7  7  4  1
  2.970841929137e-01    7  7  4  4
 -7.614776404074e-04    7  7  5  1
 -8.543533174132e-04    7  7  5  4
  5.275192014697e-01    7  7  5  5
  4.677115918318e-03    7  7  6  1
  5.163429442783e-03    7  7  6  4
 -1.601882214388e-08    7  7  6  5
  5.275193284767e-01    7  7  6  6
  7.557506756402e-05    7  7  7  2
  2.989539648798e-02    7  7  7  3
  5.623889303786e-01    7  7  7  7
 -9.081617458088e-03    8  1  2  1
  2.665569881386e-05    8  1  3  1
  3.894779296290e-04    8  1  4  2
 -1.903572605903e-06    8  1  4  3
 -3.177954550246e-04    8  1  5  2
 -1.886849523892e-03    8  1  5  3
  1.886846032869e-03    8  1  6  2
 -3.177964411164e-04    8  1  6  3
  1.012101856968e-06    8  1  7  4
  2.251136570186e-03    8  1  7  5
  3.712585403990e-04    8  1  7  6
  1.309162436020e-02    8  1  8  1
 -1.171079728235e-01    8  2  1  1
 -1.697408106247e-01    8  2  2  2
  4.263111789978e-05    8  2  3  2
 -1.466539273671e-01    8  2  3  3
  1.402624202732e-02    8  2  4  1
  3.839218080097e-02    8  2  4  4
  3.062665768860e-04    8  2  5  1
  4.180141563326e-04    8  2  5  4
  9.534481935457e-02    8  2  5  5
 -1.814571487753e-03    8  2  6  1
 -2.448816000015e-03    8  2  6  4
 -4.289962340139e-09    8  2  6  5
  9.534485270372e-02    8  2  6  6
 -5.896742701648e-04    8  2  7  2
 -1.249431506144e-01    8  2  7  3
 -2.666280339664e-02    8  2  7  7
  1.492799355130e-01    8  2  8  2
  4.509945007045e-04    8  3  1  1
  6.029163566844e-04    8  3  2  2
 -1.154205466822e-02    8  3  3  2
  6.881732725546e-04    8  3  3  3
 -6.530029155602e-05    8  3  4  1
 -1.870074433319e-04    8  3  4  4
  1.814531426579e-03    8  3  5  1
  2.448794640674e-03    8  3  5  4
 -4.519768796917e-04    8  3  5  5
  3.062589701694e-04    8  3  6  1
  4.180097088831e-04    8  3  6  4
 -9.737123934677e-09    8  3  6  5
 -4.519847574539e-04    8  3  6  6
 -1.216437594531e-02    8  3  7  2
  5.896742701655e-04    8  3  7  3
  6.884153524104e-05    8  3  7  7
 -5.896704517204e-04    8  3  8  2
  1.216952083868e-02    8  3  8  3
 -8.745789377610e-04    8  4  2  1
  3.648876082080e-06    8  4  3  1
  3.006590560483e-03    8  4  4  2
 -1.434739431958e-05    8  4  4  3
  6.503604388681e-05    8  4  5  2
  3.481935092173e-04    8  4  5  3
 -3.482119161298e-04    8  4  6  2
  6.503253081459e-05    8  4  6  3
 -1.012101856898e-06    8  4  7  1
 -7.615393111247e-04    8  4  7  5
 -1.349879937485e-04    8  4  7  6
 -6.173654510793e-05    8  4  8  1
  6.055229104753e-03    8  4  8  4
 -5.931818054495e-04    8  5  2  1
 -3.434963336739e-03    8  5  3  1
  1.556156369989e-04    8  5  4  2
  8.785297842072e-04    8  5  4  3
  8.038619094261e-03    8  5  5  2
 -3.675881637867e-05    8  5  5  3
  1.755738808637e-05    8  5  6  2
  3.696111076663e-03    8  5  6  3
  2.251136570186e-03    8  5  7  1
 -7.615393111247e-04    8  5  7  4
 -8.243709602195e-03    8  5  7  6
 -3.712652109200e-04    8  5  8  1
  1.349996552995e-04    8  5  8  4
  1.833380767971e-02    8  5  8  5
  3.434989578854e-03    8  6  2  1
 -5.931780815677e-04    8  6  3  1
 -8.785582250329e-04    8  6  4  2
  1.556106360887e-04    8  6  4  3
 -1.758566263764e-05    8  6  5  2
 -3.696164145951e-03    8  6  5  3
  8.038692339553e-03    8  6  6  2
 -3.678075304605e-05    8  6  6  3
  3.712585403990e-04    8  6  7  1
 -1.349879937484e-04    8  6  7  4
  8.243709602195e-03    8  6  7  5
  2.251166245284e-03    8  6  8  1
 -7.616044771767e-04    8  6  8  4
 -4.152073571643e-08    8  6  8  5
  1.833403189475e-02    8  6  8  6
 -1.453020062485e-04    8  7  2  2
 -1.565797026600e-02    8  7  3  2
  1.453020062494e-04    8  7  3  3
 -4.677058745121e-03    8  7  5  1
 -5.163237466752e-03    8  7  5  4
 -7.614667192519e-04    8  7  6  1
 -8.543156415430e-04    8  7  6  4
 -1.615029116502e-03    8  7  7  2
  3.372107797806e-06    8  7  7  3
  1.455166185005e-08    8  7  7  7
  3.372107796098e-06    8  7  8  2
  1.615029116502e-03    8  7  8  3
  1.891114562375e-02    8  7  8  7
  5.192605463893e-01    8  8  1  1
  5.093654082352e-01    8  8  2  2
 -1.452970740149e-04    8  8  3  2
  4.780461069156e-01    8  8  3  3
  2.887606346036e-02    8  8  4  1
  2.970841929137e-01    8  8  4  4
  7.614776404072e-04    8  8  5  1
  8.543533174169e-04    8  8  5  4
  5.275192014697e-01    8  8  5  5
 -4.677115918317e-03    8  8  6  1
 -5.163429442783e-03    8  8  6  4
 -1.601882218016e-08    8  8  6  5
  5.275193284767e-01    8  8  6  6
  6.884153524089e-05    8  8  7  2
  2.666280339664e-02    8  8  7  3
  5.245628395876e-01    8  8  7  7
 -2.989539648797e-02    8  8  8  2
  7.557506756360e-05    8  8  8  3
 -1.455166198050e-08    8  8  8  7
  5.623889303786e-01    8  8  8  8
  1.418301625029e-01    9  1  1  1
  1.566023391086e-01    9  1  2  2
  1.566023391086e-01    9  1  3  3
 -1.949306346456e-02    9  1  4  1
 -5.424323767016e-02    9  1  4  4
 -1.345969755509e-01    9  1  5  5
 -2.018508771498e-09    9  1  6  5
 -1.345969798987e-01    9  1  6  6
  6.007075966010e-04    9  1  7  2
  1.408590968670e-01    9  1  7  3
  4.638295946119e-03    9  1  7  7
 -1.408590968670e-01    9  1  8  2
  6.007075966016e-04    9  1  8  3
  4.638295946119e-03    9  1  8  8
  1.910654631384e-01    9  1  9  1
  1.455828025708e-02    9  2  2  1
  8.423860162549e-06    9  2  3  1
 -5.739714378366e-04    9  2  4  2
 -1.870321579797e-06    9  2  4  3
 -1.997269367324e-04    9  2  5  2
 -1.102563619204e-03    9  2  5  3
  1.102562356085e-03    9  2  6  2
 -1.997269206878e-04    9  2  6  3
  3.157996639515e-05    9  2  7  1
  4.747984126516e-06    9  2  7  4
 -8.130742213143e-04    9  2  7  5
 -1.309797005497e-04    9  2  7  6
 -9.846836144798e-03    9  2  8  1
 -5.902540228736e-04    9  2  8  4
  1.309789820489e-04    9  2  8  5
 -8.130788488468e-04    9  2  8  6
  1.580216624909e-02    9  2  9  2
 -8.423860162487e-06    9  3  2  1
  1.455828025708e-02    9  3  3  1
  1.870321579792e-06    9  3  4  2
 -5.739714378366e-04    9  3  4  3
 -1.102563619204e-03    9  3  5  2
  1.997269367320e-04    9  3  5  3
 -1.997269206879e-04    9  3  6  2
 -1.102562356085e-03    9  3  6  3
  9.846836144798e-03    9  3  7  1
  5.902540228736e-04    9  3  7  4
  1.309789820489e-04    9  3  7  5
 -8.130788488468e-04    9  3  7  6
  3.157996639525e-05    9  3  8  1
  4.747984126582e-06    9  3  8  4
  8.130742213143e-04    9  3  8  5
  1.309797005498e-04    9  3  8  6
  1.580216624909e-02    9  3  9  3
 -5.469725232326e-02    9  4  1  1
 -4.069865681913e-02    9  4  2  2
 -4.069865681913e-02    9  4  3  3
 -1.202876327213e-02    9  4  4  1
 -1.539564249890e-02    9  4  4  4
 -7.737386986335e-02    9  4  5  5
 -1.364027882231e-09    9  4  6  5
 -7.737386976327e-02    9  4  6  6
  4.887391277825e-05    9  4  7  2
  9.984598486532e-03    9  4  7  3
 -6.650953618620e-02    9  4  7  7
 -9.984598486532e-03    9  4  8  2
  4.887391277837e-05    9  4  8  3
 -6.650953618620e-02    9  4  8  8
  1.742166111189e-02    9  4  9  1
  2.445174753361e-02    9  4  9  4
 -3.389670205525e-04    9  5  2  2
 -1.935889450151e-03    9  5  3  2
  3.389670205516e-04    9  5  3  3
 -1.341179805447e-02    9  5  5  1
 -6.804149191254e-03    9  5  5  4
  5.061530140159e-09    9  5  6  1
 -5.546577701081e-08    9  5  6  4
  2.871866645682e-03    9  5  7  2
 -4.829588748376e-04    9  5  7  3
  1.147181286279e-03    9  5  7  7
 -4.829588748366e-04    9  5  8  2
 -2.871866645682e-03    9  5  8  3
  7.011736948366e-03    9  5  8  7
 -1.147181286278e-03    9  5  8  8
  2.081646062334e-02    9  5  9  5
  1.935887608827e-03    9  6  2  2
 -3.389664419969e-04    9  6  3  2
 -1.935887608828e-03    9  6  3  3
 -8.960867266667e-09    9  6  5  1
  5.036094079165e-08    9  6  5  4
 -1.341178411884e-02    9  6  6  1
 -6.804124615513e-03    9  6  6  4
  4.829535839144e-04    9  6  7  2
  2.871885576026e-03    9  6  7  3
 -7.011852454732e-03    9  6  7  7
  2.871885576026e-03    9  6  8  2
 -4.829535839144e-04    9  6  8  3
  1.147155394038e-03    9  6  8  7
  7.011852454732e-03    9  6  8  8
  5.980698014599e-09    9  6  9  5
  2.081640962359e-02    9  6  9  6
  7.145655407993e-05    9  7  2  1
  1.576824564731e-02    9  7  3  1
 -1.768912747039e-06    9  7  4  2
 -2.290902150461e-04    9  7  4  3
 -1.485595570031e-03    9  7  5  2
  2.529976356732e-04    9  7  5  3
 -2.529969306472e-04    9  7  6  2
 -1.485604319644e-03    9  7  6  3
  2.013701327272e-03    9  7  7  1
 -7.784960693226e-04    9  7  7  4
 -7.231320093792e-04    9  7  7  5
  4.422368550656e-03    9  7  7  6
 -2.111512181902e-07    9  7  8  1
  1.616428042907e-07    9  7  8  4
 -4.422353198268e-03    9  7  8  5
 -7.231309896369e-04    9  7  8  6
  2.091622319210e-05    9  7  9  2
  5.148918705152e-03    9  7  9  3
  1.706312219111e-02    9  7  9  7
 -1.576824564731e-02    9  8  2  1
  7.145655407988e-05    9  8  3  1
  2.290902150461e-04    9  8  4  2
 -1.768912747032e-06    9  8  4  3
  2.529976356731e-04    9  8  5  2
  1.485595570031e-03    9  8  5  3
 -1.485604319644e-03    9  8  6  2
  2.529969306475e-04    9  8  6  3
  2.111512183987e-07    9  8  7  1
 -1.616428043831e-07    9  8  7  4
 -4.422353198268e-03    9  8  7  5
 -7.231309896369e-04    9  8  7  6
  2.013701327272e-03    9  8  8  1
 -7.784960693226e-04    9  8  8  4
  7.231320093793e-04    9  8  8  5
 -4.422368550656e-03    9  8  8  6
 -5.148918705152e-03    9  8  9  2
  2.091622319215e-05    9  8  9  3
  1.706312219111e-02    9  8  9  8
  5.685556135049e-01    9  9  1  1
  4.905799684203e-01    9  9  2  2
  4.905799684203e-01    9  9  3  3
  3.485702981838e-02    9  9  4  1
  3.114909414372e-01    9  9  4  4
  5.591017287401e-01    9  9  5  5
  3.938057080355e-09    9  9  6  5
  5.591017472339e-01    9  9  6  6
  2.516319484129e-05    9  9  7  2
  1.910442745993e-02    9  9  7  3
  5.592799337245e-01    9  9  7  7
 -1.910442745993e-02    9  9  8  2
  2.516319484070e-05    9  9  8  3
  5.592799337245e-01    9  9  8  8
 -5.967107248548e-04    9  9  9  1
 -7.784163239854e-02    9  9  9  4
  6.340575755191e-01    9  9  9  9
 -4.474163671044e+00    1  1  0  0
 -4.289612800885e+00    2  2  0  0
 -4.289612800885e+00    3  3  0  0
 -1.524523266389e-01    4  1  0  0
 -2.368557572947e+00    4  4  0  0
 -3.690934296727e+00    5  5  0  0
 -3.166414855695e-09    6  5  0  0
 -3.690934488201e+00    6  6  0  0
 -9.401245860189e-04    7  2  0  0
 -4.048875319079e-01    7  3  0  0
 -3.796296341670e+00    7  7  0  0
  4.048875319079e-01    8  2  0  0
 -9.401245860215e-04    8  3  0  0
 -3.796296341670e+00    8  8  0  0
 -3.850919440964e-01    9  1  0  0
  3.835253619957e-01    9  4  0  0
 -3.848702398894e+00    9  9  0  0
    -66.519896671680   0  0  0  0
