#INFO: **** input file is /projects/bamu3429/BENCHMARK/fresh_atoms/MRPT/vqz/monoxides/VO/mrpt.py ****
import json
from pyscf import gto,scf,mcscf, fci, lo, ci, cc
from pyscf.scf import ROHF, UHF,ROKS
import numpy as np
import pandas as pd

# THIS IS WERE IT STARTS ====================================

df=json.load(open("../../../trail.json"))

spins={'ScO':1, 'TiO':2, 'VO':3, 'CrO':4, 'MnO':5, 'FeO':4, 'CuO':1}

nd={'Sc':(1,0), 'Ti':(2,0), 'V':(3,0), 'Cr':(5,0), 'Mn':(5,0), 'Fe':(5,1), 'Cu':(5,4)}

cas={'Sc':3, 'Ti':4, 'V':5, 'Cr':6, 'Mn':7, 'Fe':8, 'Cu':11}

re={'ScO':1.668, 'TiO':1.623, 'VO':1.591, 'CrO':1.621, 'MnO':1.648, 'FeO':1.616, 'CuO':1.725}

datacsv={}
for nm in ['basis','charge','method','molecule','pseudopotential',
           'totalenergy','totalenergy-stocherr','totalenergy-syserr']:
  datacsv[nm]=[]

basis='vqz'
element='V'

mol=gto.Mole()
mol.ecp={}
mol.basis={}
for el in [element,'O']:
  mol.ecp[el]=gto.basis.parse_ecp(df[el]['ecp'])
  mol.basis[el]=gto.basis.parse(df[el][basis])
mol.charge=0
mol.spin=spins[element+'O']
mol.build(atom="%s 0. 0. 0.; O 0. 0. %g"%(element,re[element+'O']),verbose=4)

m=ROHF(mol)
m.level_shift=1000.0
dm=m.from_chk("../../../../HF/monoxides/"+element+basis+"0.chk")
hf=m.kernel(dm)
m.analyze()

from pyscf.shciscf import shci
mc = shci.SHCISCF(m, 9, 4+cas[element])
#mc.fcisolver.conv_tol = 1e-14
mc.fcisolver.mpiprefix="mpirun -np 28"
mc.fcisolver.num_thrds=12
mc.verbose = 4
cas=mc.kernel()[0]
 
from pyscf.icmpspt import icmpspt
pt=icmpspt.icmpspt(mc,rdmM=500, PTM=1000,\
                          pttype="MRLCC",\
                          third_order=True,\
                          fully_ic=True,\
                          do_dm4=True)

datacsv['basis'].append(basis)
datacsv['charge'].append(0)
datacsv['method'].append('MRPT')
datacsv['molecule'].append(element)
datacsv['pseudopotential'].append('trail')
datacsv['totalenergy'].append(cas+pt)
datacsv['totalenergy-stocherr'].append(0.0)
datacsv['totalenergy-syserr'].append(0.0)
pd.DataFrame(datacsv).to_csv(element+".csv",index=False)

#INFO: ******************** input file end ********************


System: ('Linux', 'bnode0306.rc.int.colorado.edu', '3.10.0-514.41.1.el7.x86_64', '#1 SMP Wed Jan 17 10:26:16 EST 2018', 'x86_64', 'x86_64')  Threads 28
Python 2.7.11 (default, Mar 22 2016, 01:42:54) 
[GCC Intel(R) C++ gcc 4.8 mode]
numpy 1.11.1  scipy 0.17.1
Date: Wed Mar 28 16:37:44 2018
PySCF version 1.4
PySCF path  /projects/bamu3429/softwares/pyscf_uptodate/pyscf
GIT ORIG_HEAD e2292e6edec2b0e0024c21b81de03db1d7bd4121
GIT HEAD      ref: refs/heads/master
GIT master branch  f3591ef22170896a4cdc2aadaa6f5da388ffcadb

[INPUT] VERBOSE 4
[INPUT] num atoms = 2
[INPUT] num electrons = 19
[INPUT] charge = 0
[INPUT] spin (= nelec alpha-beta = 2S) = 3
[INPUT] symmetry False subgroup None
[INPUT]  1 V      0.000000000000   0.000000000000   0.000000000000 AA    0.000000000000   0.000000000000   0.000000000000 Bohr
[INPUT]  2 O      0.000000000000   0.000000000000   1.591000000000 AA    0.000000000000   0.000000000000   3.006554264183 Bohr
[INPUT] ---------------- BASIS SET ---------------- 
[INPUT] l, kappa, [nprim/nctr], expnt,             c_1 c_2 ...
[INPUT] O
[INPUT] 0    0    [10   /1   ]  57.663349         -0.002794
                                35.726816         0.023976
                                22.453757         -0.115974
                                14.732301         0.288033
                                9.739917          -0.274786
                                5.042008          -0.083789
                                2.157818          0.063778
                                1.002916          0.410182
                                0.421839          0.504044
                                0.173041          0.172152
[INPUT] 0    0    [1    /1   ]  1.70747              1
[INPUT] 0    0    [1    /1   ]  0.617491             1
[INPUT] 0    0    [1    /1   ]  0.223309             1
[INPUT] 0    0    [1    /1   ]  0.084592             1
[INPUT] 1    0    [10   /1   ]  52.47406          -0.000522
                                32.138432         0.004857
                                19.458579         -0.027749
                                11.839344         0.074258
                                7.91003           0.014369
                                3.670858          0.153479
                                1.53966           0.283685
                                0.647119          0.358201
                                0.267853          0.29559
                                0.107198          0.104889
[INPUT] 1    0    [1    /1   ]  1.345435             1
[INPUT] 1    0    [1    /1   ]  0.458358             1
[INPUT] 1    0    [1    /1   ]  0.156151             1
[INPUT] 1    0    [1    /1   ]  0.045837             1
[INPUT] 2    0    [1    /1   ]  3.661538             1
[INPUT] 2    0    [1    /1   ]  1.279275             1
[INPUT] 2    0    [1    /1   ]  0.446952             1
[INPUT] 2    0    [1    /1   ]  0.148191             1
[INPUT] 3    0    [1    /1   ]  2.598839             1
[INPUT] 3    0    [1    /1   ]  0.849032             1
[INPUT] 3    0    [1    /1   ]  0.310222             1
[INPUT] 4    0    [1    /1   ]  1.838653             1
[INPUT] 4    0    [1    /1   ]  0.706784             1
[INPUT] V
[INPUT] 0    0    [12   /1   ]  33.51168105       0.006845
                                15.38532624       -0.214557
                                9.96227367        1.392425
                                8.05943355        -1.485929
                                3.6960334         -0.026725
                                1.49220279        0.457681
                                0.84622253        0.506886
                                0.43855031        0.249453
                                0.2102388         0.007109
                                0.1022422         0.007055
                                0.04832462        -0.000443
                                0.02406855        0.001278
[INPUT] 0    0    [12   /1   ]  33.51168105       -0.001211
                                15.38532624       0.04697
                                9.96227367        -0.329808
                                8.05943355        0.363635
                                3.6960334         0.005985
                                1.49220279        -0.140857
                                0.84622253        -0.203846
                                0.43855031        -0.200776
                                0.2102388         0.022081
                                0.1022422         0.429765
                                0.04832462        0.534383
                                0.02406855        0.187984
[INPUT] 0    0    [12   /1   ]  33.51168105       -0.00739
                                15.38532624       0.238491
                                9.96227367        -1.724091
                                8.05943355        1.999647
                                3.6960334         -0.238256
                                1.49220279        -1.556963
                                0.84622253        0.309646
                                0.43855031        0.556155
                                0.2102388         0.87521
                                0.1022422         0.066563
                                0.04832462        -0.498018
                                0.02406855        -0.328938
[INPUT] 0    0    [12   /1   ]  33.51168105       -0.014812
                                15.38532624       0.388493
                                9.96227367        -2.78127
                                8.05943355        3.330758
                                3.6960334         -0.94462
                                1.49220279        -2.423512
                                0.84622253        2.390354
                                0.43855031        1.173321
                                0.2102388         -1.126324
                                0.1022422         -1.21378
                                0.04832462        0.578957
                                0.02406855        0.647397
[INPUT] 0    0    [12   /1   ]  33.51168105       0.02431
                                15.38532624       -0.654708
                                9.96227367        5.220233
                                8.05943355        -6.798776
                                3.6960334         4.217259
                                1.49220279        -0.410754
                                0.84622253        -4.499651
                                0.43855031        4.05621
                                0.2102388         0.422256
                                0.1022422         -1.849392
                                0.04832462        -0.198025
                                0.02406855        0.951472
[INPUT] 0    0    [1    /1   ]  0.02406855           1
[INPUT] 0    0    [1    /1   ]  0.01198757           1
[INPUT] 1    0    [12   /1   ]  49.83779697       0.000413
                                25.60370921       -0.003442
                                10.40982442       0.097153
                                7.71483683        -0.206888
                                4.49868206        0.083281
                                2.48212838        0.186621
                                1.4387019         0.395144
                                0.72090362        0.377883
                                0.3443302         0.134629
                                0.13162828        0.011074
                                0.05284968        -0.000426
                                0.02121951        0.000256
[INPUT] 1    0    [12   /1   ]  49.83779697       -2.9e-05
                                25.60370921       0.000502
                                10.40982442       -0.020934
                                7.71483683        0.047431
                                4.49868206        -0.020701
                                2.48212838        -0.057583
                                1.4387019         -0.106451
                                0.72090362        -0.140229
                                0.3443302         0.043257
                                0.13162828        0.438687
                                0.05284968        0.536785
                                0.02121951        0.12546
[INPUT] 1    0    [12   /1   ]  49.83779697       0.000125
                                25.60370921       -0.002517
                                10.40982442       0.129205
                                7.71483683        -0.331116
                                4.49868206        0.199683
                                2.48212838        0.736477
                                1.4387019         0.263863
                                0.72090362        -0.926674
                                0.3443302         -0.457633
                                0.13162828        0.732362
                                0.05284968        0.294964
                                0.02121951        -0.006728
[INPUT] 1    0    [12   /1   ]  49.83779697       -0.000421
                                25.60370921       -0.000896
                                10.40982442       0.223292
                                7.71483683        -0.706699
                                4.49868206        0.969782
                                2.48212838        1.23461
                                1.4387019         -1.707054
                                0.72090362        -0.818959
                                0.3443302         1.677915
                                0.13162828        -0.284846
                                0.05284968        -0.553275
                                0.02121951        0.038662
[INPUT] 1    0    [12   /1   ]  49.83779697       -0.005409
                                25.60370921       0.02436
                                10.40982442       0.004817
                                7.71483683        -0.691264
                                4.49868206        2.714011
                                2.48212838        -1.342486
                                1.4387019         -2.368929
                                0.72090362        3.305492
                                0.3443302         -1.334113
                                0.13162828        -0.670775
                                0.05284968        0.961376
                                0.02121951        -0.095792
[INPUT] 1    0    [1    /1   ]  0.02121951           1
[INPUT] 1    0    [1    /1   ]  0.00851977           1
[INPUT] 2    0    [10   /1   ]  34.27504048       0.000678
                                16.12418185       -0.017858
                                9.59474528        0.107867
                                3.8690861         0.173949
                                1.82728072        0.26883
                                0.85799457        0.321303
                                0.38035078        0.300128
                                0.15533087        0.170792
                                0.06318167        0.035148
                                0.03734397        0.003549
[INPUT] 2    0    [10   /1   ]  34.27504048       0.000582
                                16.12418185       0.010626
                                9.59474528        -0.094081
                                3.8690861         -0.229152
                                1.82728072        -0.398003
                                0.85799457        -0.07706
                                0.38035078        0.316419
                                0.15533087        0.47231
                                0.06318167        0.193995
                                0.03734397        0.015813
[INPUT] 2    0    [10   /1   ]  34.27504048       0.003942
                                16.12418185       -0.00929
                                9.59474528        -0.056573
                                3.8690861         -0.437279
                                1.82728072        -0.366316
                                0.85799457        0.692165
                                0.38035078        0.436052
                                0.15533087        -0.45661
                                0.06318167        -0.393393
                                0.03734397        -0.018597
[INPUT] 2    0    [10   /1   ]  34.27504048       -0.001109
                                16.12418185       0.03439
                                9.59474528        -0.270394
                                3.8690861         -0.936233
                                1.82728072        1.031092
                                0.85799457        0.469932
                                0.38035078        -0.990908
                                0.15533087        0.147863
                                0.06318167        0.422386
                                0.03734397        0.020135
[INPUT] 2    0    [1    /1   ]  0.03734397           1
[INPUT] 2    0    [1    /1   ]  0.02207241           1
[INPUT] 3    0    [1    /1   ]  3.23539              1
[INPUT] 3    0    [1    /1   ]  1.128879             1
[INPUT] 3    0    [1    /1   ]  0.393882             1
[INPUT] 3    0    [1    /1   ]  0.13743105           1
[INPUT] 4    0    [1    /1   ]  3.232259             1
[INPUT] 4    0    [1    /1   ]  1.154065             1
[INPUT] 4    0    [1    /1   ]  0.41205423           1
[INPUT] 5    0    [1    /1   ]  2.694878             1
[INPUT] 5    0    [1    /1   ]  0.96219527           1
nuclear repulsion = 25.9433202085229
number of shells = 48
number of NR pGTOs = 650
number of NR cGTOs = 214
basis = {'O': [[0, [57.663349, -0.002794], [35.726816, 0.023976], [22.453757, -0.115974], [14.732301, 0.288033], [9.739917, -0.274786], [5.042008, -0.083789], [2.157818, 0.063778], [1.002916, 0.410182], [0.421839, 0.504044], [0.173041, 0.172152]], [0, [1.70747, 1.0]], [0, [0.617491, 1.0]], [0, [0.223309, 1.0]], [0, [0.084592, 1.0]], [1, [52.47406, -0.000522], [32.138432, 0.004857], [19.458579, -0.027749], [11.839344, 0.074258], [7.91003, 0.014369], [3.670858, 0.153479], [1.53966, 0.283685], [0.647119, 0.358201], [0.267853, 0.29559], [0.107198, 0.104889]], [1, [1.345435, 1.0]], [1, [0.458358, 1.0]], [1, [0.156151, 1.0]], [1, [0.045837, 1.0]], [2, [3.661538, 1.0]], [2, [1.279275, 1.0]], [2, [0.446952, 1.0]], [2, [0.148191, 1.0]], [3, [2.598839, 1.0]], [3, [0.849032, 1.0]], [3, [0.310222, 1.0]], [4, [1.838653, 1.0]], [4, [0.706784, 1.0]]], 'V': [[0, [33.51168105, 0.006845], [15.38532624, -0.214557], [9.96227367, 1.392425], [8.05943355, -1.485929], [3.6960334, -0.026725], [1.49220279, 0.457681], [0.84622253, 0.506886], [0.43855031, 0.249453], [0.2102388, 0.007109], [0.1022422, 0.007055], [0.04832462, -0.000443], [0.02406855, 0.001278]], [0, [33.51168105, -0.001211], [15.38532624, 0.04697], [9.96227367, -0.329808], [8.05943355, 0.363635], [3.6960334, 0.005985], [1.49220279, -0.140857], [0.84622253, -0.203846], [0.43855031, -0.200776], [0.2102388, 0.022081], [0.1022422, 0.429765], [0.04832462, 0.534383], [0.02406855, 0.187984]], [0, [33.51168105, -0.00739], [15.38532624, 0.238491], [9.96227367, -1.724091], [8.05943355, 1.999647], [3.6960334, -0.238256], [1.49220279, -1.556963], [0.84622253, 0.309646], [0.43855031, 0.556155], [0.2102388, 0.87521], [0.1022422, 0.066563], [0.04832462, -0.498018], [0.02406855, -0.328938]], [0, [33.51168105, -0.014812], [15.38532624, 0.388493], [9.96227367, -2.78127], [8.05943355, 3.330758], [3.6960334, -0.94462], [1.49220279, -2.423512], [0.84622253, 2.390354], [0.43855031, 1.173321], [0.2102388, -1.126324], [0.1022422, -1.21378], [0.04832462, 0.578957], [0.02406855, 0.647397]], [0, [33.51168105, 0.02431], [15.38532624, -0.654708], [9.96227367, 5.220233], [8.05943355, -6.798776], [3.6960334, 4.217259], [1.49220279, -0.410754], [0.84622253, -4.499651], [0.43855031, 4.05621], [0.2102388, 0.422256], [0.1022422, -1.849392], [0.04832462, -0.198025], [0.02406855, 0.951472]], [0, [0.02406855, 1.0]], [0, [0.01198757, 1.0]], [1, [49.83779697, 0.000413], [25.60370921, -0.003442], [10.40982442, 0.097153], [7.71483683, -0.206888], [4.49868206, 0.083281], [2.48212838, 0.186621], [1.4387019, 0.395144], [0.72090362, 0.377883], [0.3443302, 0.134629], [0.13162828, 0.011074], [0.05284968, -0.000426], [0.02121951, 0.000256]], [1, [49.83779697, -2.9e-05], [25.60370921, 0.000502], [10.40982442, -0.020934], [7.71483683, 0.047431], [4.49868206, -0.020701], [2.48212838, -0.057583], [1.4387019, -0.106451], [0.72090362, -0.140229], [0.3443302, 0.043257], [0.13162828, 0.438687], [0.05284968, 0.536785], [0.02121951, 0.12546]], [1, [49.83779697, 0.000125], [25.60370921, -0.002517], [10.40982442, 0.129205], [7.71483683, -0.331116], [4.49868206, 0.199683], [2.48212838, 0.736477], [1.4387019, 0.263863], [0.72090362, -0.926674], [0.3443302, -0.457633], [0.13162828, 0.732362], [0.05284968, 0.294964], [0.02121951, -0.006728]], [1, [49.83779697, -0.000421], [25.60370921, -0.000896], [10.40982442, 0.223292], [7.71483683, -0.706699], [4.49868206, 0.969782], [2.48212838, 1.23461], [1.4387019, -1.707054], [0.72090362, -0.818959], [0.3443302, 1.677915], [0.13162828, -0.284846], [0.05284968, -0.553275], [0.02121951, 0.038662]], [1, [49.83779697, -0.005409], [25.60370921, 0.02436], [10.40982442, 0.004817], [7.71483683, -0.691264], [4.49868206, 2.714011], [2.48212838, -1.342486], [1.4387019, -2.368929], [0.72090362, 3.305492], [0.3443302, -1.334113], [0.13162828, -0.670775], [0.05284968, 0.961376], [0.02121951, -0.095792]], [1, [0.02121951, 1.0]], [1, [0.00851977, 1.0]], [2, [34.27504048, 0.000678], [16.12418185, -0.017858], [9.59474528, 0.107867], [3.8690861, 0.173949], [1.82728072, 0.26883], [0.85799457, 0.321303], [0.38035078, 0.300128], [0.15533087, 0.170792], [0.06318167, 0.035148], [0.03734397, 0.003549]], [2, [34.27504048, 0.000582], [16.12418185, 0.010626], [9.59474528, -0.094081], [3.8690861, -0.229152], [1.82728072, -0.398003], [0.85799457, -0.07706], [0.38035078, 0.316419], [0.15533087, 0.47231], [0.06318167, 0.193995], [0.03734397, 0.015813]], [2, [34.27504048, 0.003942], [16.12418185, -0.00929], [9.59474528, -0.056573], [3.8690861, -0.437279], [1.82728072, -0.366316], [0.85799457, 0.692165], [0.38035078, 0.436052], [0.15533087, -0.45661], [0.06318167, -0.393393], [0.03734397, -0.018597]], [2, [34.27504048, -0.001109], [16.12418185, 0.03439], [9.59474528, -0.270394], [3.8690861, -0.936233], [1.82728072, 1.031092], [0.85799457, 0.469932], [0.38035078, -0.990908], [0.15533087, 0.147863], [0.06318167, 0.422386], [0.03734397, 0.020135]], [2, [0.03734397, 1.0]], [2, [0.02207241, 1.0]], [3, [3.23539, 1.0]], [3, [1.128879, 1.0]], [3, [0.393882, 1.0]], [3, [0.13743105, 1.0]], [4, [3.232259, 1.0]], [4, [1.154065, 1.0]], [4, [0.41205423, 1.0]], [5, [2.694878, 1.0]], [5, [0.96219527, 1.0]]]}
ecp = {'O': [2, [[-1, [[], [[10.27717748, 6.0]], [[15.99566749, 1232.50197768], [10.46901775, -696.47008301], [14.6384801, -2654.22657081], [12.57591181, 2101.67732548]], [[7.77739102, 61.66306486]]]], [0, [[], [], [[12.39426073, -656683.37638839], [12.38126171, 657858.57667068], [8.57671033, 511.50098405], [9.89256508, -2579.54665641], [28.05641604, -57.68129584], [17.24753607, 970.30940152]], []]], [1, [[], [], [[14.78918914, -363027.24258186], [14.82014018, 361852.52314043], [22.89622221, -1300.20069256], [8.51331893, -181.96869573], [11.48609758, 2194.87589959], [27.22017524, 451.19906206]], []]]]], 'V': [10, [[-1, [[], [[8.85341849, 13.0]], [[14.12393489, 1867.96836466], [10.01469125, -417.2185296], [16.87739786, -6735.41034163], [17.42661229, 5248.9519915]], [[8.14766139, 115.09444037]]]], [0, [[], [], [[10.17161428, 8429.89768085], [6.62108601, -4738.0869454], [6.4407206, 3874.69004628], [11.26222343, -9817.80452096], [19.82459033, -286.16022228], [14.35299938, 2571.80634504]], []]], [1, [[], [], [[10.25117807, 40641.17869487], [10.49106006, -41559.00487832], [13.7869188, 3357.33248976], [16.29479305, -896.47755921], [7.79003518, -1904.45864373], [6.62830213, 382.3757783]], []]], [2, [[], [], [[8.601477, 4615.05527413], [10.66674565, -3671.60281242], [15.19026557, 4480.50015686], [8.06189603, -2591.12632756], [19.82232597, 2587.18683714], [18.22318105, -5431.92186158]], []]]]]}
CPU time:         3.67


******** <class 'pyscf.scf.rohf.ROHF'> flags ********
method = ROHF
initial guess = minao
damping factor = 0
level shift factor = 1000.0
DIIS = <class 'pyscf.scf.diis.CDIIS'>
DIIS start cycle = 1
DIIS space = 8
SCF tol = 1e-09
SCF gradient tol = None
max. SCF cycles = 50
direct_scf = True
direct_scf_tol = 1e-13
chkfile to save SCF result = /projects/bamu3429/BENCHMARK/fresh_atoms/MRPT/vqz/monoxides/VO/tmpZuvyuu
max_memory 4000 MB (current use 125 MB)
num. doubly occ = 8  num. singly occ = 3
Set gradient conv threshold to 3.16228e-05
init E= -86.4068468156307
  HOMO = 499.888125606261  LUMO = 1000.01312680201
cycle= 1 E= -86.4068468156306  delta_E= 8.53e-14  |g|= 7.28e-06  |ddm|= 3.96e-08
  HOMO = -0.111874394817425  LUMO = 0.0131268019975212
Extra cycle  E= -86.4068468156683  delta_E= -3.77e-11  |g|= 1.66e-06  |ddm|= 1.67e-05
converged SCF energy = -86.4068468156683
**** MO energy ****
                Roothaan           | alpha              | beta
MO #1   energy= -3.26433784340725  | -3.34461276839775  | -3.18406296574792  occ= 2
MO #2   energy= -2.10046792136384  | -2.128449884274    | -2.07248595375342  occ= 2
MO #3   energy= -2.06680638517021  | -2.19699267665496  | -1.93662009368546  occ= 2
MO #4   energy= -2.06680638517021  | -2.19699267665496  | -1.93662009368545  occ= 2
MO #5   energy= -1.17520736111907  | -1.17859745340709  | -1.17181727483317  occ= 2
MO #6   energy= -0.477974721676539 | -0.488933322491376 | -0.467016360009545 occ= 2
MO #7   energy= -0.454076473346212 | -0.458954606317943 | -0.449198340374479 occ= 2
MO #8   energy= -0.454076473346209 | -0.458954606317943 | -0.44919834037448  occ= 2
MO #9   energy= -0.126244992074655 | -0.285061138786763 | 0.0325710948828485 occ= 1
MO #10  energy= -0.111874394818048 | -0.490905048839779 | 0.267156130316373  occ= 1
MO #11  energy= -0.111874394817425 | -0.490905048846572 | 0.267156130317718  occ= 1
MO #12  energy= 0.0131268019975212 | 0.00909420980556192 | 0.0171593941894903 occ= 0
MO #13  energy= 0.0131268019975253 | 0.00909420980556119 | 0.0171593941894903 occ= 0
MO #14  energy= 0.0135990164728942 | 0.0112709852494515 | 0.0159271095388557 occ= 0
MO #15  energy= 0.0275299324562034 | 0.0268081216644991 | 0.0282517436182463 occ= 0
MO #16  energy= 0.0412939044165525 | 0.0283440522327255 | 0.0542437566003807 occ= 0
MO #17  energy= 0.0412939044165532 | 0.0283440522327274 | 0.054243756600384  occ= 0
MO #18  energy= 0.047409789605185  | 0.0364423158693868 | 0.0583773273335446 occ= 0
MO #19  energy= 0.0607570629282664 | 0.0602179002770593 | 0.0612962475482739 occ= 0
MO #20  energy= 0.0607570629284791 | 0.0602179002771152 | 0.0612962475477338 occ= 0
MO #21  energy= 0.0669865479432171 | 0.0656643222300519 | 0.0683087736563824 occ= 0
MO #22  energy= 0.0669865479432185 | 0.0656643222300511 | 0.0683087736563829 occ= 0
MO #23  energy= 0.0758381886493628 | 0.0694740034394713 | 0.0822024390535154 occ= 0
MO #24  energy= 0.11458095883387   | 0.102336490861405  | 0.126825447320887  occ= 0
MO #25  energy= 0.117278682329141  | 0.102014406084809  | 0.132542958573472  occ= 0
MO #26  energy= 0.11727868232916   | 0.102014406084828  | 0.132542958573493  occ= 0
MO #27  energy= 0.12553573270718   | 0.118827150891515  | 0.132244366952662  occ= 0
MO #28  energy= 0.175140005556711  | 0.168488652516704  | 0.181791424741414  occ= 0
MO #29  energy= 0.175140005557746  | 0.168488652517028  | 0.181791424740861  occ= 0
MO #30  energy= 0.186730249818183  | 0.181440024148708  | 0.192020477387648  occ= 0
MO #31  energy= 0.193852744207103  | 0.183392268925229  | 0.204313219488977  occ= 0
MO #32  energy= 0.193852744207124  | 0.183392268925236  | 0.204313219489017  occ= 0
MO #33  energy= 0.21954854735558   | 0.21786891150885   | 0.221228183202307  occ= 0
MO #34  energy= 0.219548547355696  | 0.217868911509065  | 0.221228183202317  occ= 0
MO #35  energy= 0.223492187510968  | 0.202974842625537  | 0.244009532396398  occ= 0
MO #36  energy= 0.223492187510984  | 0.202974842625499  | 0.244009532396468  occ= 0
MO #37  energy= 0.23762740322584   | 0.231043701206902  | 0.244211121247608  occ= 0
MO #38  energy= 0.333155032437871  | 0.324940780133011  | 0.341369297760151  occ= 0
MO #39  energy= 0.499238321711238  | 0.484008508322105  | 0.514468162016555  occ= 0
MO #40  energy= 0.499946636170367  | 0.492922731007065  | 0.5069705414477    occ= 0
MO #41  energy= 0.499946636170445  | 0.492922731007321  | 0.506970541447607  occ= 0
MO #42  energy= 0.510427758450309  | 0.498847114398488  | 0.522008402502135  occ= 0
MO #43  energy= 0.51042775845031   | 0.498847114398488  | 0.522008402502135  occ= 0
MO #44  energy= 0.538200633979287  | 0.524640010448275  | 0.551761257510298  occ= 0
MO #45  energy= 0.538200633979358  | 0.524640010448318  | 0.551761257510399  occ= 0
MO #46  energy= 0.549132588441015  | 0.534943571545225  | 0.563321605336773  occ= 0
MO #47  energy= 0.549132588441576  | 0.534943571545808  | 0.563321605337333  occ= 0
MO #48  energy= 0.558110810285663  | 0.543947247168395  | 0.57227440460717   occ= 0
MO #49  energy= 0.569035889514246  | 0.540744882550644  | 0.597326921663279  occ= 0
MO #50  energy= 0.569035889516292  | 0.540744882551854  | 0.597326921664058  occ= 0
MO #51  energy= 0.623121104162474  | 0.606098829351973  | 0.640143379438154  occ= 0
MO #52  energy= 0.668844785682559  | 0.665378471202736  | 0.672311100680926  occ= 0
MO #53  energy= 0.720313063180576  | 0.705884842207671  | 0.734741286407854  occ= 0
MO #54  energy= 0.720313063181249  | 0.705884842207757  | 0.734741286408542  occ= 0
MO #55  energy= 0.729431034320916  | 0.72225627886202   | 0.736605789779804  occ= 0
MO #56  energy= 0.729431034321018  | 0.722256278862101  | 0.736605789779935  occ= 0
MO #57  energy= 0.755221319980764  | 0.750421090147448  | 0.760021549814086  occ= 0
MO #58  energy= 0.755221319980775  | 0.750421090147454  | 0.760021549814099  occ= 0
MO #59  energy= 0.944182455480082  | 0.941181601538377  | 0.947183309389067  occ= 0
MO #60  energy= 1.18893131363814   | 1.18047437226858   | 1.19738824705838   occ= 0
MO #61  energy= 1.31149678303643   | 1.29436359665817   | 1.32862996941469   occ= 0
MO #62  energy= 1.31149678303665   | 1.29436359665839   | 1.3286299694149    occ= 0
MO #63  energy= 1.37015204568729   | 1.36754132978703   | 1.37276276158755   occ= 0
MO #64  energy= 1.37015204568729   | 1.36754132978703   | 1.37276276158755   occ= 0
MO #65  energy= 1.39737448518202   | 1.38590274150509   | 1.40884622807786   occ= 0
MO #66  energy= 1.39737448518218   | 1.38590274150539   | 1.40884622807785   occ= 0
MO #67  energy= 1.4914809871049    | 1.48344506752866   | 1.49951690668114   occ= 0
MO #68  energy= 1.49148098710492   | 1.48344506752867   | 1.49951690668115   occ= 0
MO #69  energy= 1.51428198997499   | 1.50825078711477   | 1.52031319269963   occ= 0
MO #70  energy= 1.52877924007697   | 1.48616611907358   | 1.57139236108036   occ= 0
MO #71  energy= 1.52877924007697   | 1.48616611907358   | 1.57139236108036   occ= 0
MO #72  energy= 1.64716484764429   | 1.64668685705732   | 1.64764283814244   occ= 0
MO #73  energy= 1.64716484764431   | 1.64668685705733   | 1.64764283814245   occ= 0
MO #74  energy= 1.65626129851998   | 1.64579222243035   | 1.66673037457999   occ= 0
MO #75  energy= 1.7121778924337    | 1.698192908737     | 1.72616287613038   occ= 0
MO #76  energy= 1.71217789243385   | 1.69819290873716   | 1.72616287613053   occ= 0
MO #77  energy= 1.74290621959159   | 1.72948365714606   | 1.75632878222182   occ= 0
MO #78  energy= 1.7429062195916    | 1.72948365714614   | 1.75632878222179   occ= 0
MO #79  energy= 1.74966840982776   | 1.74085187205223   | 1.75848494710385   occ= 0
MO #80  energy= 1.85003613791164   | 1.83806640198874   | 1.86200587383453   occ= 0
MO #81  energy= 1.85003613791175   | 1.83806640198883   | 1.86200587383466   occ= 0
MO #82  energy= 1.9054645947551    | 1.88662644426175   | 1.92430274524844   occ= 0
MO #83  energy= 1.9054645947551    | 1.88662644426175   | 1.92430274524845   occ= 0
MO #84  energy= 1.9349152853725    | 1.92702905805718   | 1.94280151653107   occ= 0
MO #85  energy= 2.04243942092736   | 2.03069048975321   | 2.05418835210149   occ= 0
MO #86  energy= 2.04243942092736   | 2.03069048975321   | 2.05418835210149   occ= 0
MO #87  energy= 2.24570925641779   | 2.24164712703944   | 2.24977138576041   occ= 0
MO #88  energy= 2.2503020698723    | 2.24338271298566   | 2.25722142675894   occ= 0
MO #89  energy= 2.25030206987232   | 2.24338271298568   | 2.25722142675896   occ= 0
MO #90  energy= 2.3249732517634    | 2.29818941309497   | 2.3517570958161    occ= 0
MO #91  energy= 2.32497325176362   | 2.29818941309532   | 2.35175709581612   occ= 0
MO #92  energy= 2.50184659460591   | 2.49860369943824   | 2.50508948977358   occ= 0
MO #93  energy= 2.50184659460595   | 2.49860369943829   | 2.50508948977362   occ= 0
MO #94  energy= 2.50260627231978   | 2.47847037771163   | 2.52674216650166   occ= 0
MO #95  energy= 2.57814235209421   | 2.53665048840402   | 2.619634219421     occ= 0
MO #96  energy= 2.57814235209513   | 2.53665048840538   | 2.6196342194212    occ= 0
MO #97  energy= 2.95509635897186   | 2.9441161319232    | 2.9660765862371    occ= 0
MO #98  energy= 3.30536391216642   | 3.29556141732245   | 3.31516640701039   occ= 0
MO #99  energy= 3.30536391216643   | 3.29556141732247   | 3.3151664070104    occ= 0
MO #100 energy= 3.69154587175702   | 3.69097013792659   | 3.69212160558746   occ= 0
MO #101 energy= 3.69154587175703   | 3.69097013792659   | 3.69212160558746   occ= 0
MO #102 energy= 3.82671646088132   | 3.81983785610516   | 3.83359506565749   occ= 0
MO #103 energy= 3.82671646088132   | 3.81983785610516   | 3.83359506565749   occ= 0
MO #104 energy= 3.87970654610864   | 3.86930774378961   | 3.89010534871824   occ= 0
MO #105 energy= 3.89307035369276   | 3.87879106095309   | 3.90734964643243   occ= 0
MO #106 energy= 3.89307035369278   | 3.87879106095312   | 3.90734964643245   occ= 0
MO #107 energy= 4.00687418724246   | 3.99535050401223   | 4.0183978707097    occ= 0
MO #108 energy= 4.00687418724256   | 3.99535050401239   | 4.01839787070971   occ= 0
MO #109 energy= 4.0196637252438    | 4.01049075315404   | 4.02883669742668   occ= 0
MO #110 energy= 4.0473618856573    | 3.97670272560909   | 4.11802104570552   occ= 0
MO #111 energy= 4.0473618856573    | 3.97670272560908   | 4.11802104570552   occ= 0
MO #112 energy= 4.10107171166201   | 4.10046160848262   | 4.10168181484142   occ= 0
MO #113 energy= 4.10107171166202   | 4.10046160848261   | 4.10168181484142   occ= 0
MO #114 energy= 4.14804061676625   | 4.12797643114706   | 4.16810480245987   occ= 0
MO #115 energy= 4.14804061676635   | 4.12797643114703   | 4.16810480246007   occ= 0
MO #116 energy= 4.23389784449826   | 4.23176280261684   | 4.23603288636785   occ= 0
MO #117 energy= 4.26007469129246   | 4.25016960494125   | 4.26997977764366   occ= 0
MO #118 energy= 4.26007469129247   | 4.25016960494126   | 4.26997977764367   occ= 0
MO #119 energy= 4.27847150471894   | 4.27374590059167   | 4.28319710886237   occ= 0
MO #120 energy= 4.27847150471894   | 4.27374590059172   | 4.28319710886234   occ= 0
MO #121 energy= 4.41135685214894   | 4.40826212411731   | 4.41445158018057   occ= 0
MO #122 energy= 4.41135685214896   | 4.40826212411732   | 4.41445158018059   occ= 0
MO #123 energy= 4.54679721992866   | 4.54200857996609   | 4.55158585980683   occ= 0
MO #124 energy= 4.63991308075156   | 4.63677488978369   | 4.64305127195592   occ= 0
MO #125 energy= 4.63991308075158   | 4.63677488978372   | 4.64305127195593   occ= 0
MO #126 energy= 4.92068423724959   | 4.90083779151901   | 4.94053068298015   occ= 0
MO #127 energy= 4.9206842372497    | 4.90083779151912   | 4.94053068298026   occ= 0
MO #128 energy= 4.95412483358283   | 4.94781424745676   | 4.96043541969756   occ= 0
MO #129 energy= 5.26301750766661   | 5.24595288262208   | 5.28008213271114   occ= 0
MO #130 energy= 5.26301750766677   | 5.24595288262222   | 5.28008213271132   occ= 0
MO #131 energy= 5.41231377632729   | 5.38987497000592   | 5.43475258264866   occ= 0
MO #132 energy= 5.4123137763273    | 5.38987497000592   | 5.43475258264866   occ= 0
MO #133 energy= 5.43212006932158   | 5.41714139782476   | 5.44709874081842   occ= 0
MO #134 energy= 5.43212006932159   | 5.41714139782475   | 5.44709874081841   occ= 0
MO #135 energy= 5.45594938124678   | 5.44431948588812   | 5.46757927575315   occ= 0
MO #136 energy= 5.64034219903508   | 5.59974756598944   | 5.68093683208073   occ= 0
MO #137 energy= 5.64034219903509   | 5.59974756598945   | 5.68093683208074   occ= 0
MO #138 energy= 5.652882378094     | 5.63202178405485   | 5.67374297213316   occ= 0
MO #139 energy= 5.65288237809401   | 5.63202178405485   | 5.67374297213317   occ= 0
MO #140 energy= 5.74419925675502   | 5.7311582815204    | 5.75724023198965   occ= 0
MO #141 energy= 5.74419925675502   | 5.7311582815204    | 5.75724023198965   occ= 0
MO #142 energy= 5.83428417045269   | 5.81877045828056   | 5.84979788234203   occ= 0
MO #143 energy= 5.83428417045276   | 5.81877045828056   | 5.84979788234191   occ= 0
MO #144 energy= 5.85660736733381   | 5.84865931228628   | 5.86455542160382   occ= 0
MO #145 energy= 6.17385779095241   | 6.16669397518443   | 6.18102160679887   occ= 0
MO #146 energy= 6.18056361967591   | 6.17265387269612   | 6.18847336665571   occ= 0
MO #147 energy= 6.18056361967591   | 6.17265387269611   | 6.1884733666557    occ= 0
MO #148 energy= 6.33605987008969   | 6.32371205464353   | 6.34840768672206   occ= 0
MO #149 energy= 6.33605987008975   | 6.32371205464369   | 6.34840768672201   occ= 0
MO #150 energy= 6.45827681801016   | 6.4499961373938    | 6.46655749862651   occ= 0
MO #151 energy= 6.45827681801017   | 6.44999613739381   | 6.46655749862652   occ= 0
MO #152 energy= 6.96583943406959   | 6.95921211752174   | 6.97246675046043   occ= 0
MO #153 energy= 7.47015892185553   | 7.43051663599725   | 7.50980121084309   occ= 0
MO #154 energy= 7.4701589218558    | 7.43051663599827   | 7.50980121084266   occ= 0
MO #155 energy= 8.34029086450196   | 8.31022401064038   | 8.37035771823908   occ= 0
MO #156 energy= 8.64550488084137   | 8.63726774037453   | 8.65374202130825   occ= 0
MO #157 energy= 8.64550488084147   | 8.63726774037462   | 8.65374202130833   occ= 0
MO #158 energy= 9.94979698133699   | 9.94460934935288   | 9.95498461332113   occ= 0
MO #159 energy= 9.949796981337     | 9.94460934935288   | 9.95498461332114   occ= 0
MO #160 energy= 10.2100645877651   | 10.200624661427    | 10.2195045140236   occ= 0
MO #161 energy= 10.4760681326707   | 10.4675456476715   | 10.4845906176789   occ= 0
MO #162 energy= 10.6506199891546   | 10.650552659628    | 10.6506873186812   occ= 0
MO #163 energy= 10.6506199891546   | 10.650552659628    | 10.6506873186813   occ= 0
MO #164 energy= 10.7414308631196   | 10.7347919278061   | 10.7480697984332   occ= 0
MO #165 energy= 10.7414308631197   | 10.7347919278061   | 10.7480697984332   occ= 0
MO #166 energy= 10.8278702452023   | 10.826535296954    | 10.8292051934739   occ= 0
MO #167 energy= 10.8363757337295   | 10.7776558492318   | 10.8950956182272   occ= 0
MO #168 energy= 10.8363757337295   | 10.7776558492318   | 10.8950956182272   occ= 0
MO #169 energy= 10.8503067622885   | 10.8218549035454   | 10.8787586210327   occ= 0
MO #170 energy= 10.8503067622886   | 10.8218549035452   | 10.878758621033    occ= 0
MO #171 energy= 10.9491414519067   | 10.9365046894678   | 10.9617782143455   occ= 0
MO #172 energy= 10.9491414519067   | 10.9365046894678   | 10.9617782143455   occ= 0
MO #173 energy= 10.9705162410247   | 10.9679260693281   | 10.9731064127248   occ= 0
MO #174 energy= 10.9705162410247   | 10.9679260693281   | 10.9731064127248   occ= 0
MO #175 energy= 11.0846780275702   | 11.0773633356513   | 11.091992719489    occ= 0
MO #176 energy= 11.0846780275702   | 11.0773633356513   | 11.0919927194891   occ= 0
MO #177 energy= 11.6146103176002   | 11.6145295364883   | 11.6146910987121   occ= 0
MO #178 energy= 11.6146103176002   | 11.6145295364882   | 11.6146910987121   occ= 0
MO #179 energy= 11.7242456687279   | 11.7184119574667   | 11.7300793800231   occ= 0
MO #180 energy= 11.7835976332202   | 11.7831796448979   | 11.7840156215422   occ= 0
MO #181 energy= 11.7835976332202   | 11.7831796448979   | 11.7840156215422   occ= 0
MO #182 energy= 12.4460657702207   | 12.4431326645664   | 12.4489988758789   occ= 0
MO #183 energy= 12.4564411654888   | 12.4498199274036   | 12.463062403574    occ= 0
MO #184 energy= 12.4564411654888   | 12.4498199274036   | 12.463062403574    occ= 0
MO #185 energy= 12.6457235661409   | 12.6455737625831   | 12.6458733697007   occ= 0
MO #186 energy= 12.645723566141    | 12.6455737625831   | 12.6458733697007   occ= 0
MO #187 energy= 12.6904940776153   | 12.6812610736535   | 12.699727081577    occ= 0
MO #188 energy= 12.6904940776153   | 12.6812610736535   | 12.6997270815771   occ= 0
MO #189 energy= 13.3729770076146   | 13.358760407618    | 13.3871936076112   occ= 0
MO #190 energy= 13.3729770076147   | 13.3587604076181   | 13.3871936076113   occ= 0
MO #191 energy= 13.5379110402089   | 13.5298685308676   | 13.5459535495409   occ= 0
MO #192 energy= 13.6740656489264   | 13.6665816424247   | 13.6815496553371   occ= 0
MO #193 energy= 15.2049664317917   | 15.1761182829769   | 15.2338145806066   occ= 0
MO #194 energy= 15.2049664317918   | 15.1761182829769   | 15.2338145806066   occ= 0
MO #195 energy= 15.2136907941328   | 15.1655044740402   | 15.2618771142254   occ= 0
MO #196 energy= 15.2136907941328   | 15.1655044740403   | 15.2618771142254   occ= 0
MO #197 energy= 15.2822257350527   | 15.2617976051008   | 15.3026538652904   occ= 0
MO #198 energy= 15.2822257350528   | 15.2617976051008   | 15.3026538652909   occ= 0
MO #199 energy= 15.5922626467525   | 15.5759474816532   | 15.6085778118518   occ= 0
MO #200 energy= 15.5922626467525   | 15.5759474816532   | 15.6085778118518   occ= 0
MO #201 energy= 15.8120897581692   | 15.7983153609658   | 15.8258641552807   occ= 0
MO #202 energy= 15.8953349763191   | 15.8719819584339   | 15.9186879942044   occ= 0
MO #203 energy= 15.8953349763191   | 15.8719819584339   | 15.9186879942044   occ= 0
MO #204 energy= 15.918762128555    | 15.8839022592281   | 15.953621997882    occ= 0
MO #205 energy= 15.918762128555    | 15.8839022592281   | 15.953621997882    occ= 0
MO #206 energy= 15.9623051475001   | 15.9450967293596   | 15.9795135656407   occ= 0
MO #207 energy= 15.9623051475001   | 15.9450967293596   | 15.9795135656407   occ= 0
MO #208 energy= 16.1938882866849   | 16.1797915134872   | 16.207985059885    occ= 0
MO #209 energy= 16.1938882866851   | 16.1797915134872   | 16.2079850598853   occ= 0
MO #210 energy= 16.3657916195139   | 16.3538611752963   | 16.3777220637152   occ= 0
MO #211 energy= 16.3742091730921   | 16.3618521586386   | 16.3865661875456   occ= 0
MO #212 energy= 16.3742091730921   | 16.3618521586386   | 16.3865661875456   occ= 0
MO #213 energy= 17.7245401167799   | 17.7159329019854   | 17.733147331564    occ= 0
MO #214 energy= 20.5970352391477   | 20.5966033877688   | 20.5974670905255   occ= 0
 ** Mulliken pop on meta-lowdin orthogonal AOs  **
 ** Mulliken pop  **
pop of  0V 3s        1.99960
pop of  0V 4s        0.87699
pop of  0V 5s        0.00535
pop of  0V 6s        0.00324
pop of  0V 7s        0.00040
pop of  0V 8s        0.00168
pop of  0V 9s        0.00136
pop of  0V 3px       1.99946
pop of  0V 3py       1.99946
pop of  0V 3pz       1.99658
pop of  0V 4px       0.00618
pop of  0V 4py       0.00618
pop of  0V 4pz       0.04554
pop of  0V 5px       0.00020
pop of  0V 5py       0.00020
pop of  0V 5pz       0.00548
pop of  0V 6px       0.00003
pop of  0V 6py       0.00003
pop of  0V 6pz       0.00136
pop of  0V 7px       0.00002
pop of  0V 7py       0.00002
pop of  0V 7pz       0.00073
pop of  0V 8px       0.00030
pop of  0V 8py       0.00030
pop of  0V 8pz       0.00794
pop of  0V 9px       0.00002
pop of  0V 9py       0.00002
pop of  0V 9pz       0.00076
pop of  0V 3dxy      0.99692
pop of  0V 3dyz      0.28820
pop of  0V 3dz^2     0.60014
pop of  0V 3dxz      0.28820
pop of  0V 3dx2-y2    0.99692
pop of  0V 4dxy      0.00196
pop of  0V 4dyz      0.00102
pop of  0V 4dz^2     0.00469
pop of  0V 4dxz      0.00102
pop of  0V 4dx2-y2    0.00196
pop of  0V 5dxy      0.00011
pop of  0V 5dyz      0.00008
pop of  0V 5dz^2     0.00179
pop of  0V 5dxz      0.00008
pop of  0V 5dx2-y2    0.00011
pop of  0V 6dxy      0.00001
pop of  0V 6dyz      0.00001
pop of  0V 6dz^2     0.00011
pop of  0V 6dxz      0.00001
pop of  0V 6dx2-y2    0.00001
pop of  0V 7dxy      0.00033
pop of  0V 7dyz      0.00003
pop of  0V 7dz^2     0.00067
pop of  0V 7dxz      0.00003
pop of  0V 7dx2-y2    0.00033
pop of  0V 8dxy      0.00005
pop of  0V 8dyz      0.00000
pop of  0V 8dz^2     0.00016
pop of  0V 8dxz      0.00000
pop of  0V 8dx2-y2    0.00005
pop of  0V 4fy^3     0.00000
pop of  0V 4fxyz     0.00000
pop of  0V 4fyz^2    0.00004
pop of  0V 4fz^3     0.00012
pop of  0V 4fxz^2    0.00004
pop of  0V 4fzx^2    0.00000
pop of  0V 4fx^3     0.00000
pop of  0V 5fy^3     0.00000
pop of  0V 5fxyz     0.00002
pop of  0V 5fyz^2    0.00047
pop of  0V 5fz^3     0.00078
pop of  0V 5fxz^2    0.00047
pop of  0V 5fzx^2    0.00002
pop of  0V 5fx^3     0.00000
pop of  0V 6fy^3     0.00000
pop of  0V 6fxyz     0.00008
pop of  0V 6fyz^2    0.00081
pop of  0V 6fz^3     0.00273
pop of  0V 6fxz^2    0.00081
pop of  0V 6fzx^2    0.00008
pop of  0V 6fx^3     0.00000
pop of  0V 7fy^3     0.00000
pop of  0V 7fxyz     0.00004
pop of  0V 7fyz^2    0.00019
pop of  0V 7fz^3     0.00210
pop of  0V 7fxz^2    0.00019
pop of  0V 7fzx^2    0.00004
pop of  0V 7fx^3     0.00000
pop of  0V 5g-4      0.00000
pop of  0V 5g-3      0.00000
pop of  0V 5g-2      0.00000
pop of  0V 5g-1      0.00000
pop of  0V 5g 0      0.00001
pop of  0V 5g 1      0.00000
pop of  0V 5g 2      0.00000
pop of  0V 5g 3      0.00000
pop of  0V 5g 4      0.00000
pop of  0V 6g-4      0.00000
pop of  0V 6g-3      0.00000
pop of  0V 6g-2      0.00000
pop of  0V 6g-1      0.00008
pop of  0V 6g 0      0.00011
pop of  0V 6g 1      0.00008
pop of  0V 6g 2      0.00000
pop of  0V 6g 3      0.00000
pop of  0V 6g 4      0.00000
pop of  0V 7g-4      0.00000
pop of  0V 7g-3      0.00000
pop of  0V 7g-2      0.00000
pop of  0V 7g-1      0.00001
pop of  0V 7g 0      0.00103
pop of  0V 7g 1      0.00001
pop of  0V 7g 2      0.00000
pop of  0V 7g 3      0.00000
pop of  0V 7g 4      0.00000
pop of  0V 6h-5      0.00000
pop of  0V 6h-4      0.00000
pop of  0V 6h-3      0.00000
pop of  0V 6h-2      0.00000
pop of  0V 6h-1      0.00000
pop of  0V 6h 0      0.00000
pop of  0V 6h 1      0.00000
pop of  0V 6h 2      0.00000
pop of  0V 6h 3      0.00000
pop of  0V 6h 4      0.00000
pop of  0V 6h 5      0.00000
pop of  0V 7h-5      0.00000
pop of  0V 7h-4      0.00000
pop of  0V 7h-3      0.00000
pop of  0V 7h-2      0.00000
pop of  0V 7h-1      0.00000
pop of  0V 7h 0      0.00010
pop of  0V 7h 1      0.00000
pop of  0V 7h 2      0.00000
pop of  0V 7h 3      0.00000
pop of  0V 7h 4      0.00000
pop of  0V 7h 5      0.00000
pop of  1O 2s        1.86571
pop of  1O 3s        0.00158
pop of  1O 4s        0.00029
pop of  1O 5s        0.00522
pop of  1O 6s        0.01304
pop of  1O 2px       1.68800
pop of  1O 2py       1.68800
pop of  1O 2pz       1.53654
pop of  1O 3px       0.00076
pop of  1O 3py       0.00076
pop of  1O 3pz       0.00021
pop of  1O 4px       0.00033
pop of  1O 4py       0.00033
pop of  1O 4pz       0.00057
pop of  1O 5px       0.00391
pop of  1O 5py       0.00391
pop of  1O 5pz       0.00113
pop of  1O 6px       0.00175
pop of  1O 6py       0.00175
pop of  1O 6pz       0.00422
pop of  1O 3dxy      0.00000
pop of  1O 3dyz      0.00010
pop of  1O 3dz^2     0.00015
pop of  1O 3dxz      0.00010
pop of  1O 3dx2-y2    0.00000
pop of  1O 4dxy      0.00001
pop of  1O 4dyz      0.00111
pop of  1O 4dz^2     0.00149
pop of  1O 4dxz      0.00111
pop of  1O 4dx2-y2    0.00001
pop of  1O 5dxy      0.00001
pop of  1O 5dyz      0.00352
pop of  1O 5dz^2     0.00241
pop of  1O 5dxz      0.00352
pop of  1O 5dx2-y2    0.00001
pop of  1O 6dxy      0.00030
pop of  1O 6dyz      0.00302
pop of  1O 6dz^2     0.00494
pop of  1O 6dxz      0.00302
pop of  1O 6dx2-y2    0.00030
pop of  1O 4fy^3     0.00000
pop of  1O 4fxyz     0.00000
pop of  1O 4fyz^2    0.00002
pop of  1O 4fz^3     0.00003
pop of  1O 4fxz^2    0.00002
pop of  1O 4fzx^2    0.00000
pop of  1O 4fx^3     0.00000
pop of  1O 5fy^3     0.00000
pop of  1O 5fxyz     0.00000
pop of  1O 5fyz^2    0.00017
pop of  1O 5fz^3     0.00015
pop of  1O 5fxz^2    0.00017
pop of  1O 5fzx^2    0.00000
pop of  1O 5fx^3     0.00000
pop of  1O 6fy^3     0.00000
pop of  1O 6fxyz     0.00014
pop of  1O 6fyz^2    0.00016
pop of  1O 6fz^3     0.00067
pop of  1O 6fxz^2    0.00016
pop of  1O 6fzx^2    0.00014
pop of  1O 6fx^3     0.00000
pop of  1O 5g-4      0.00000
pop of  1O 5g-3      0.00000
pop of  1O 5g-2      0.00000
pop of  1O 5g-1      0.00001
pop of  1O 5g 0      0.00001
pop of  1O 5g 1      0.00001
pop of  1O 5g 2      0.00000
pop of  1O 5g 3      0.00000
pop of  1O 5g 4      0.00000
pop of  1O 6g-4      0.00000
pop of  1O 6g-3      0.00000
pop of  1O 6g-2      0.00001
pop of  1O 6g-1      0.00000
pop of  1O 6g 0      0.00010
pop of  1O 6g 1      0.00000
pop of  1O 6g 2      0.00001
pop of  1O 6g 3      0.00000
pop of  1O 6g 4      0.00000
 ** Mulliken atomic charges  **
charge of  0V =      0.84512
charge of  1O =     -0.84512

******** <class 'pyscf.mcscf.mc1step.CASSCF'> flags ********
CAS (6e+3e, 9o), ncore = 5, nvir = 200
max_cycle_macro = 50
max_cycle_micro = 4
conv_tol = 1e-07
conv_tol_grad = None
orbital rotation max_stepsize = 0.02
augmented hessian ah_max_cycle = 30
augmented hessian ah_conv_tol = 1e-12
augmented hessian ah_linear dependence = 1e-14
augmented hessian ah_level shift = 0
augmented hessian ah_start_tol = 2.5
augmented hessian ah_start_cycle = 3
augmented hessian ah_grad_trust_region = 3
kf_trust_region = 3
kf_interval = 4
ci_response_space = 4
ci_grad_trust_region = 3
with_dep4 0
natorb = False
canonicalization = True
chkfile = ./scratch/184386/tmp0Qo3lM
max_memory 4000 MB (current use 2656 MB)
internal_rotation = False

******** SHCI flags ********
executable             = /home/bamu3429/softwares/dice/Dice
mpiprefix              = mpirun -np 28
scratchDirectory       = ./scratch/184386
integralFile           = ./FCIDUMP
configFile             = ./input.dat
outputFile             = ./output.dat
maxIter                = 6
sweep_iter             = []
sweep_epsilon          = []
nPTiter                = 0
Stochastic             = True
fullrestart            = False
restart                = False
num_thrds              = 12
memory                 = None

CASCI E = -86.4069137553605  S^2 = 3.7500000
Set conv_tol_grad to 0.000316228
macro iter 1 (7 JK  2 micro), CASSCF E = -86.4071618384481  dE = -0.00024808309  S^2 = 3.7500000
               |grad[o]|=0.000638  |grad[c]|= None  |ddm|=0.0073
macro iter 2 (21 JK  4 micro), CASSCF E = -86.4168839308462  dE = -0.0097220924  S^2 = 3.7500000
               |grad[o]|=0.00197  |grad[c]|= None  |ddm|=0.0345
macro iter 3 (21 JK  4 micro), CASSCF E = -86.4416013714815  dE = -0.024717441  S^2 = 3.7500000
               |grad[o]|=0.0392  |grad[c]|= None  |ddm|=0.0764
macro iter 4 (21 JK  4 micro), CASSCF E = -86.4668685538026  dE = -0.025267182  S^2 = 3.7500000
               |grad[o]|=0.0678  |grad[c]|= None  |ddm|=0.0437
macro iter 5 (21 JK  4 micro), CASSCF E = -86.5139721946168  dE = -0.047103641  S^2 = 3.7500000
               |grad[o]|=0.0804  |grad[c]|= None  |ddm|=0.0456
macro iter 6 (21 JK  4 micro), CASSCF E = -86.5532208688111  dE = -0.039248674  S^2 = 3.7500000
               |grad[o]|=0.0835  |grad[c]|= None  |ddm|=0.0491
macro iter 7 (15 JK  4 micro), CASSCF E = -86.5614450691612  dE = -0.0082242004  S^2 = 3.7500000
               |grad[o]|=0.0515  |grad[c]|= None  |ddm|=0.0566
macro iter 8 (11 JK  4 micro), CASSCF E = -86.5614914621402  dE = -4.6392979e-05  S^2 = 3.7500000
               |grad[o]|=0.0045  |grad[c]|= None  |ddm|=0.00985
macro iter 9 (9 JK  4 micro), CASSCF E = -86.5614924302939  dE = -9.6815377e-07  S^2 = 3.7500000
               |grad[o]|=0.000644  |grad[c]|= None  |ddm|=0.00199
macro iter 10 (3 JK  1 micro), CASSCF E = -86.5614924460525  dE = -1.5758602e-08  S^2 = 3.7500000
               |grad[o]|=0.000111  |grad[c]|= None  |ddm|=0.000169
1-step CASSCF converged in 10 macro (150 JK 35 micro) steps
CASSCF canonicalization
CASSCF energy = -86.5614924460525


--------------------------------------------------
                 ICMPSPT CALCULATION              
--------------------------------------------------

Perturbation type: MRLCC
With fully internally contracted scheme
With third order correction

Preparing necessary RDMs
......production of RDMs took      39.11 sec
Reading binary 4RDM from DICE
......reading the RDM took         27.19 sec

(GOOD) Trace 4RDM:   3024.0 =    9*    8*    7*    6
(GOOD) Trace 3RDM:    504.0 =    9*    8*    7
(GOOD) Trace 2RDM:     72.0 =    9*    8
(GOOD) Trace 1RDM:      9.0 =    9

Producing the integrals
......production of INT took     607.05 sec

Energy_core =  -92.4632168802
Energy      =  -86.5614924461

WARNING: Have to use natural orbitals from CAASCF
         offdiagonal elements: 0.568026366853

Basic ingredients written to int/
......savings of INGREDIENTS took     258.00 sec

Second-order:
perturber CCVV --        -0.140696476
perturber CCAV --        -0.071738444
perturber ACVV --        -0.175119363
perturber CCAA --        -0.038671239
perturber AAVV --        -0.144507222
perturber CAAV --        -0.140988385
perturber AAAV --        -0.033756725
perturber AAAC --        -0.004793979
Total:                   -0.750271833

Third-order:              0.001126943

Total PT       --        -0.749144890

