 &FCI NORB=6 ,NELEC=4 ,MS2=4,
  ORBSYM=1,1,1,1,1,1,
  ISYM=1,
 &END
  6.876803097749e-01    1  1  1  1
  1.389688284495e-09    2  1  1  1
  2.603272858845e-02    2  1  2  1
  6.295472578697e-01    2  2  1  1
  1.293814474449e-09    2  2  2  1
  6.756720787090e-01    2  2  2  2
 -2.985925547716e-08    3  1  1  1
 -3.849842122932e-10    3  1  2  1
 -3.842967952957e-08    3  1  2  2
  2.603272664263e-02    3  1  3  1
 -1.902943530480e-09    3  2  1  1
 -1.088508874370e-09    3  2  2  1
 -1.609209113159e-09    3  2  2  2
 -3.676329613709e-10    3  2  3  1
  2.575838664600e-02    3  2  3  2
  6.295472201186e-01    3  3  1  1
  1.563550985200e-09    3  3  2  1
  6.241552646704e-01    3  3  2  2
 -2.918819800164e-08    3  3  3  1
 -1.609208245180e-09    3  3  3  2
  6.756719972158e-01    3  3  3  3
 -3.355517461734e-11    4  1  1  1
 -3.181776454749e-09    4  1  2  1
 -1.413978211308e-04    4  1  2  2
  5.193895339731e-10    4  1  3  1
 -1.292427571657e-02    4  1  3  2
  1.413966651815e-04    4  1  3  3
  2.862024760851e-02    4  1  4  1
  2.779651698958e-08    4  2  1  1
  7.930406816176e-05    4  2  2  1
  7.465070110028e-09    4  2  2  2
  7.248763194868e-03    4  2  3  1
 -7.287227812920e-10    4  2  3  2
 -1.041364308982e-08    4  2  3  3
  7.099160968980e-10    4  2  4  1
  1.856026299852e-02    4  2  4  2
 -1.574404923294e-09    4  3  1  1
  7.248686450069e-03    4  3  2  1
  8.433304827404e-10    4  3  2  2
 -7.930438771771e-05    4  3  3  1
  7.812579322400e-09    4  3  3  2
 -7.334693574851e-10    4  3  3  3
 -1.152369266576e-08    4  3  4  1
 -6.080233662331e-10    4  3  4  2
  1.856016679324e-02    4  3  4  3
  6.186090844714e-01    4  4  1  1
 -4.403904539038e-10    4  4  2  1
  6.382809130534e-01    4  4  2  2
 -1.487219430363e-10    4  4  3  1
 -5.028505934885e-10    4  4  3  2
  6.382810443242e-01    4  4  3  3
 -7.792386830267e-10    4  4  4  1
  9.021374794379e-09    4  4  4  2
 -7.231543980322e-10    4  4  4  3
  6.739339402339e-01    4  4  4  4
  5.717257964062e-08    5  1  1  1
  1.479000949254e-07    5  1  2  1
  3.739978019555e-05    5  1  2  2
 -1.656401562833e-08    5  1  3  1
  3.414081107727e-03    5  1  3  2
 -3.730332528591e-05    5  1  3  3
 -3.870943195092e-03    5  1  4  1
 -3.932654422288e-09    5  1  4  2
  4.267465731633e-08    5  1  4  3
  4.653584731534e-08    5  1  4  4
  8.811518239564e-03    5  1  5  1
  3.248085370760e-06    5  2  1  1
  3.599418320727e-05    5  2  2  1
  3.412314616720e-06    5  2  2  2
  3.290432487411e-03    5  2  3  1
 -1.460488548257e-08    5  2  3  2
  3.154679274024e-06    5  2  3  3
  6.218299864561e-09    5  2  4  1
  1.970066767028e-03    5  2  4  2
 -4.628349322580e-09    5  2  4  3
  3.209741224752e-06    5  2  4  4
  2.977689298771e-08    5  2  5  1
  8.889552513656e-03    5  2  5  2
 -3.439149900977e-07    5  3  1  1
  3.288637842014e-03    5  3  2  1
 -3.351867207760e-07    5  3  2  2
 -3.598375205059e-05    5  3  3  1
  1.234499513421e-07    5  3  3  2
 -3.649444899039e-07    5  3  3  3
 -6.268459033350e-08    5  3  4  1
 -4.631329141549e-09    5  3  4  2
  1.968936482335e-03    5  3  4  3
 -3.412412133185e-07    5  3  4  4
 -3.676023279649e-07    5  3  5  1
  7.237841857782e-09    5  3  5  2
  8.888610628192e-03    5  3  5  3
 -6.772882075734e-03    5  4  1  1
 -3.760955010750e-09    5  4  2  1
 -1.109853944612e-03    5  4  2  2
  4.074981282012e-08    5  4  3  1
  8.197423154734e-09    5  4  3  2
 -1.107898683209e-03    5  4  3  3
  5.636728273823e-09    5  4  4  1
  8.667666233686e-08    5  4  4  2
 -1.049847164259e-08    5  4  4  3
  9.190314088055e-04    5  4  4  4
 -1.422987425043e-08    5  4  5  1
 -2.539173484021e-07    5  4  5  2
  2.380197535345e-08    5  4  5  3
  8.930445106274e-03    5  4  5  4
  3.112037692939e-01    5  5  1  1
  5.168035607353e-08    5  5  2  1
  3.101234533557e-01    5  5  2  2
 -5.910787965192e-07    5  5  3  1
  6.434542930575e-09    5  5  3  2
  3.101225845711e-01    5  5  3  3
 -1.306502802465e-08    5  5  4  1
 -3.542237860069e-07    5  5  4  2
  3.527129394549e-08    5  5  4  3
  3.097203202293e-01    5  5  4  4
  2.533885829578e-08    5  5  5  1
 -2.708268231549e-07    5  5  5  2
  2.442968055346e-08    5  5  5  3
 -9.177792213479e-04    5  5  5  4
  2.442976370032e-01    5  5  5  5
  3.674569023541e-03    6  1  6  1
  4.528985515662e-10    6  2  6  1
  3.901956311294e-03    6  2  6  2
 -1.941277048380e-09    6  3  6  1
 -4.624001180453e-05    6  3  6  2
  6.438951841538e-04    6  3  6  3
  3.025816663064e-05    6  4  6  1
 -5.462960786051e-10    6  4  6  2
  1.987029168525e-10    6  4  6  3
  1.638204504502e-03    6  4  6  4
 -1.339964473678e-04    6  5  6  1
  1.286001100686e-07    6  5  6  2
 -3.505585685151e-09    6  5  6  3
 -4.382955812631e-03    6  5  6  4
  3.195383478371e-02    6  5  6  5
  2.012827513993e-01    6  6  1  1
  5.343116852801e-10    6  6  2  1
  2.011386062465e-01    6  6  2  2
 -3.919358463631e-09    6  6  3  1
 -7.857118508318e-05    6  6  3  2
  1.956029997900e-01    6  6  3  3
  5.339545940599e-05    6  6  4  1
  4.467327676676e-09    6  6  4  2
  2.753759877311e-10    6  6  4  3
  1.972356151871e-01    6  6  4  4
 -8.344295377328e-05    6  6  5  1
 -5.534947035164e-08    6  6  5  2
 -5.063064256980e-09    6  6  5  3
 -2.990323582612e-03    6  6  5  4
  1.799587890036e-01    6  6  5  5
  1.618266366630e-01    6  6  6  6
 -2.411600143827e+00    1  1  0  0
 -3.540345583607e-09    2  1  0  0
 -2.398000814601e+00    2  2  0  0
  7.609989438771e-08    3  1  0  0
  4.320607960864e-09    3  2  0  0
 -2.398000711179e+00    3  3  0  0
  1.593051170087e-09    4  1  0  0
 -3.026143152084e-08    4  2  0  0
  1.536919166848e-09    4  3  0  0
 -2.393658856994e+00    4  4  0  0
 -1.344972139612e-07    5  1  0  0
 -9.291321422427e-06    5  2  0  0
  9.752453880162e-07    5  3  0  0
  9.034261904550e-03    5  4  0  0
 -1.411378618601e+00    5  5  0  0
 -9.023505068088e-01    6  6  0  0
    -64.511642865366   0  0  0  0
