#INFO: **** input file is /projects/bamu3429/BENCHMARK/fresh_atoms/MRPT/vdz/atoms/V_1/mrpt.py ****
import json
from pyscf import gto,scf,mcscf, fci, lo, ci, cc
from pyscf.scf import ROHF, UHF,ROKS
import numpy as np
import pandas as pd

# THIS IS WERE IT STARTS ====================================

df=json.load(open("../../../trail.json"))

spins={'Sc':1, 'Ti':2, 'V':3, 'Cr':6, 'Mn':5, 'Fe':4, 'Cu':1}

nd={'Sc':(1,0), 'Ti':(2,0), 'V':(3,0), 'Cr':(5,0), 'Mn':(5,0), 'Fe':(5,1), 'Cu':(5,5)}

cas={'Sc':3, 'Ti':4, 'V':5, 'Cr':6, 'Mn':7, 'Fe':8, 'Cu':11}

datacsv={}
for nm in ['atom','charge','method','basis','pseudopotential','hf',
           'totalenergy','totalenergy-stocherr','totalenergy-syserr']:
  datacsv[nm]=[]

basis='vdz'
el='V'
charge=1

mol=gto.Mole()
mol.ecp={}
mol.basis={}
mol.ecp[el]=gto.basis.parse_ecp(df[el]['ecp'])
mol.basis[el]=gto.basis.parse(df[el][basis])
mol.charge=charge
if el == 'Cr' or el == 'Cu':
  mol.spin=spins[el]-charge
else:
  mol.spin=spins[el]+charge
mol.build(atom="%s 0. 0. 0."%el,verbose=4)

m=ROHF(mol)
m.level_shift=1000.0
dm=m.from_chk("../../../../HF/atoms/"+el+basis+str(charge)+".chk")
hf=m.kernel(dm)
m.analyze()

from pyscf.shciscf import shci
mc = shci.SHCISCF(m, 6, cas[el]-charge)
#mc.fcisolver.conv_tol = 1e-14
mc.fcisolver.mpiprefix="srun -n20"
mc.fcisolver.num_thrds=12
mc.verbose = 4
cas=mc.kernel()[0]
 
from pyscf.icmpspt import icmpspt
pt=icmpspt.icmpspt(mc,rdmM=500, PTM=1000,\
                          pttype="MRLCC",\
                          third_order=True,\
                          fully_ic=True,\
                          do_dm4=True)

datacsv['atom'].append(el)
datacsv['charge'].append(charge)
datacsv['method'].append('MRPT')
datacsv['basis'].append(basis)
datacsv['pseudopotential'].append('trail')
datacsv['hf'].append(hf)
datacsv['totalenergy'].append(cas+pt)
datacsv['totalenergy-stocherr'].append(0.0)
datacsv['totalenergy-syserr'].append(0.0)
pd.DataFrame(datacsv).to_csv(el+".csv",index=False)

#INFO: ******************** input file end ********************


System: ('Linux', 'bnode0302.rc.int.colorado.edu', '3.10.0-514.41.1.el7.x86_64', '#1 SMP Wed Jan 17 10:26:16 EST 2018', 'x86_64', 'x86_64')  Threads 28
Python 2.7.11 (default, Mar 22 2016, 01:42:54) 
[GCC Intel(R) C++ gcc 4.8 mode]
numpy 1.11.1  scipy 0.17.1
Date: Wed Apr 18 11:32:51 2018
PySCF version 1.4.6
PySCF path  /projects/bamu3429/softwares/pyscf_uptodate/pyscf
GIT ORIG_HEAD f3591ef22170896a4cdc2aadaa6f5da388ffcadb
GIT HEAD      ref: refs/heads/master
GIT master branch  1847583fb1d2472321833d3c71c8b7008e5fabf5

[INPUT] VERBOSE 4
[INPUT] num atoms = 1
[INPUT] num electrons = 12
[INPUT] charge = 1
[INPUT] spin (= nelec alpha-beta = 2S) = 4
[INPUT] symmetry False subgroup None
[INPUT]  1 V      0.000000000000   0.000000000000   0.000000000000 AA    0.000000000000   0.000000000000   0.000000000000 Bohr
[INPUT] ---------------- BASIS SET ---------------- 
[INPUT] l, kappa, [nprim/nctr], expnt,             c_1 c_2 ...
[INPUT] V
[INPUT] 0    0    [12   /1   ]  33.51168105       0.006845
                                15.38532624       -0.214557
                                9.96227367        1.392425
                                8.05943355        -1.485929
                                3.6960334         -0.026725
                                1.49220279        0.457681
                                0.84622253        0.506886
                                0.43855031        0.249453
                                0.2102388         0.007109
                                0.1022422         0.007055
                                0.04832462        -0.000443
                                0.02406855        0.001278
[INPUT] 0    0    [12   /1   ]  33.51168105       -0.001211
                                15.38532624       0.04697
                                9.96227367        -0.329808
                                8.05943355        0.363635
                                3.6960334         0.005985
                                1.49220279        -0.140857
                                0.84622253        -0.203846
                                0.43855031        -0.200776
                                0.2102388         0.022081
                                0.1022422         0.429765
                                0.04832462        0.534383
                                0.02406855        0.187984
[INPUT] 0    0    [12   /1   ]  33.51168105       -0.006871
                                15.38532624       0.226397
                                9.96227367        -1.640881
                                8.05943355        1.900984
                                3.6960334         -0.211293
                                1.49220279        -1.475616
                                0.84622253        0.220931
                                0.43855031        0.532517
                                0.2102388         0.907357
                                0.1022422         0.106097
                                0.04832462        -0.528638
                                0.02406855        -0.33681
[INPUT] 0    0    [1    /1   ]  0.02406855           1
[INPUT] 0    0    [1    /1   ]  0.01198757           1
[INPUT] 1    0    [12   /1   ]  49.83779697       0.000413
                                25.60370921       -0.003442
                                10.40982442       0.097153
                                7.71483683        -0.206888
                                4.49868206        0.083281
                                2.48212838        0.186621
                                1.4387019         0.395144
                                0.72090362        0.377883
                                0.3443302         0.134629
                                0.13162828        0.011074
                                0.05284968        -0.000426
                                0.02121951        0.000256
[INPUT] 1    0    [12   /1   ]  49.83779697       -2.9e-05
                                25.60370921       0.000502
                                10.40982442       -0.020934
                                7.71483683        0.047431
                                4.49868206        -0.020701
                                2.48212838        -0.057583
                                1.4387019         -0.106451
                                0.72090362        -0.140229
                                0.3443302         0.043257
                                0.13162828        0.438687
                                0.05284968        0.536785
                                0.02121951        0.12546
[INPUT] 1    0    [12   /1   ]  49.83779697       9e-05
                                25.60370921       -0.002342
                                10.40982442       0.125465
                                7.71483683        -0.321923
                                4.49868206        0.19446
                                2.48212838        0.693755
                                1.4387019         0.323454
                                0.72090362        -0.875978
                                0.3443302         -0.540174
                                0.13162828        0.69685
                                0.05284968        0.327275
                                0.02121951        -0.009315
[INPUT] 1    0    [1    /1   ]  0.02121951           1
[INPUT] 1    0    [1    /1   ]  0.00851977           1
[INPUT] 2    0    [10   /1   ]  34.27504048       0.000678
                                16.12418185       -0.017858
                                9.59474528        0.107867
                                3.8690861         0.173949
                                1.82728072        0.26883
                                0.85799457        0.321303
                                0.38035078        0.300128
                                0.15533087        0.170792
                                0.06318167        0.035148
                                0.03734397        0.003549
[INPUT] 2    0    [10   /1   ]  34.27504048       0.000411
                                16.12418185       0.011699
                                9.59474528        -0.096988
                                3.8690861         -0.225228
                                1.82728072        -0.395141
                                0.85799457        -0.078275
                                0.38035078        0.3045
                                0.15533087        0.474064
                                0.06318167        0.20462
                                0.03734397        0.016541
[INPUT] 2    0    [1    /1   ]  0.03734397           1
[INPUT] 2    0    [1    /1   ]  0.02207241           1
[INPUT] 3    0    [1    /1   ]  1.853039             1
[INPUT] 3    0    [1    /1   ]  1.0952517            1
nuclear repulsion = 0
number of shells = 16
number of NR pGTOs = 276
number of NR cGTOs = 54
basis = {'V': [[0, [33.51168105, 0.006845], [15.38532624, -0.214557], [9.96227367, 1.392425], [8.05943355, -1.485929], [3.6960334, -0.026725], [1.49220279, 0.457681], [0.84622253, 0.506886], [0.43855031, 0.249453], [0.2102388, 0.007109], [0.1022422, 0.007055], [0.04832462, -0.000443], [0.02406855, 0.001278]], [0, [33.51168105, -0.001211], [15.38532624, 0.04697], [9.96227367, -0.329808], [8.05943355, 0.363635], [3.6960334, 0.005985], [1.49220279, -0.140857], [0.84622253, -0.203846], [0.43855031, -0.200776], [0.2102388, 0.022081], [0.1022422, 0.429765], [0.04832462, 0.534383], [0.02406855, 0.187984]], [0, [33.51168105, -0.006871], [15.38532624, 0.226397], [9.96227367, -1.640881], [8.05943355, 1.900984], [3.6960334, -0.211293], [1.49220279, -1.475616], [0.84622253, 0.220931], [0.43855031, 0.532517], [0.2102388, 0.907357], [0.1022422, 0.106097], [0.04832462, -0.528638], [0.02406855, -0.33681]], [0, [0.02406855, 1.0]], [0, [0.01198757, 1.0]], [1, [49.83779697, 0.000413], [25.60370921, -0.003442], [10.40982442, 0.097153], [7.71483683, -0.206888], [4.49868206, 0.083281], [2.48212838, 0.186621], [1.4387019, 0.395144], [0.72090362, 0.377883], [0.3443302, 0.134629], [0.13162828, 0.011074], [0.05284968, -0.000426], [0.02121951, 0.000256]], [1, [49.83779697, -2.9e-05], [25.60370921, 0.000502], [10.40982442, -0.020934], [7.71483683, 0.047431], [4.49868206, -0.020701], [2.48212838, -0.057583], [1.4387019, -0.106451], [0.72090362, -0.140229], [0.3443302, 0.043257], [0.13162828, 0.438687], [0.05284968, 0.536785], [0.02121951, 0.12546]], [1, [49.83779697, 9e-05], [25.60370921, -0.002342], [10.40982442, 0.125465], [7.71483683, -0.321923], [4.49868206, 0.19446], [2.48212838, 0.693755], [1.4387019, 0.323454], [0.72090362, -0.875978], [0.3443302, -0.540174], [0.13162828, 0.69685], [0.05284968, 0.327275], [0.02121951, -0.009315]], [1, [0.02121951, 1.0]], [1, [0.00851977, 1.0]], [2, [34.27504048, 0.000678], [16.12418185, -0.017858], [9.59474528, 0.107867], [3.8690861, 0.173949], [1.82728072, 0.26883], [0.85799457, 0.321303], [0.38035078, 0.300128], [0.15533087, 0.170792], [0.06318167, 0.035148], [0.03734397, 0.003549]], [2, [34.27504048, 0.000411], [16.12418185, 0.011699], [9.59474528, -0.096988], [3.8690861, -0.225228], [1.82728072, -0.395141], [0.85799457, -0.078275], [0.38035078, 0.3045], [0.15533087, 0.474064], [0.06318167, 0.20462], [0.03734397, 0.016541]], [2, [0.03734397, 1.0]], [2, [0.02207241, 1.0]], [3, [1.853039, 1.0]], [3, [1.0952517, 1.0]]]}
ecp = {'V': [10, [[-1, [[], [[8.85341849, 13.0]], [[14.12393489, 1867.96836466], [10.01469125, -417.2185296], [16.87739786, -6735.41034163], [17.42661229, 5248.9519915]], [[8.14766139, 115.09444037]]]], [0, [[], [], [[10.17161428, 8429.89768085], [6.62108601, -4738.0869454], [6.4407206, 3874.69004628], [11.26222343, -9817.80452096], [19.82459033, -286.16022228], [14.35299938, 2571.80634504]], []]], [1, [[], [], [[10.25117807, 40641.17869487], [10.49106006, -41559.00487832], [13.7869188, 3357.33248976], [16.29479305, -896.47755921], [7.79003518, -1904.45864373], [6.62830213, 382.3757783]], []]], [2, [[], [], [[8.601477, 4615.05527413], [10.66674565, -3671.60281242], [15.19026557, 4480.50015686], [8.06189603, -2591.12632756], [19.82232597, 2587.18683714], [18.22318105, -5431.92186158]], []]]]]}
CPU time:         3.58


******** <class 'pyscf.scf.rohf.ROHF'> flags ********
method = ROHF
initial guess = minao
damping factor = 0
level shift factor = 1000.0
DIIS = <class 'pyscf.scf.diis.CDIIS'>
DIIS start cycle = 1
DIIS space = 8
SCF tol = 1e-09
SCF gradient tol = None
max. SCF cycles = 50
direct_scf = True
direct_scf_tol = 1e-13
chkfile to save SCF result = /rc_scratch/bamu3429/tmpA5magd
max_memory 4000 MB (current use 152 MB)
num. doubly occ = 4  num. singly occ = 4
Set gradient conv threshold to 3.16228e-05
init E= -70.4780471370536
  HOMO = 499.805611907212  LUMO = 999.808677246188
cycle= 1 E= -70.4780471370539  delta_E= -2.56e-13  |g|= 1.16e-05  |ddm|= 2.76e-08
  HOMO = -0.19438809629397  LUMO = -0.191322753348652
Extra cycle  E= -70.4780471227469  delta_E= 1.43e-08  |g|= 7.11e-05  |ddm|= 0.000514
converged SCF energy = -70.4780471227469
**** MO energy ****
                Roothaan           | alpha              | beta
MO #1   energy= -3.28740012731843  | -3.4223382328249   | -3.15246182826138  occ= 2
MO #2   energy= -2.1199967610226   | -2.27025427698771  | -1.96973924505749  occ= 2
MO #3   energy= -2.11999669850453  | -2.27025458748019  | -1.96973880952887  occ= 2
MO #4   energy= -2.11133581975917  | -2.31344571439057  | -1.90922592512778  occ= 2
MO #5   energy= -0.230401542266192 | -0.614584365359714 | 0.153780599849449  occ= 1
MO #6   energy= -0.2033570593283   | -0.576369391176238 | 0.16965542837731   occ= 1
MO #7   energy= -0.203356850598106 | -0.576369079669427 | 0.169655550937391  occ= 1
MO #8   energy= -0.19438809629397  | -0.564227428426308 | 0.175448199131379  occ= 1
MO #9   energy= -0.191322753348652 | -0.20577490810983  | -0.176869101613229 occ= 0
MO #10  energy= -0.112020491483302 | -0.116948163581564 | -0.10709281938504  occ= 0
MO #11  energy= -0.112020462942554 | -0.116948145487032 | -0.107092780398076 occ= 0
MO #12  energy= -0.108317827047878 | -0.114656688179448 | -0.101978965916308 occ= 0
MO #13  energy= -0.0701967630532499 | -0.0727227289309924 | -0.0676707922078211 occ= 0
MO #14  energy= -0.0566929534680661 | -0.0601654572790879 | -0.0532204496570489 occ= 0
MO #15  energy= -0.0497906917768543 | -0.0512798002394471 | -0.0483015833142609 occ= 0
MO #16  energy= -0.0497906835028495 | -0.0512797955444106 | -0.0483015714612876 occ= 0
MO #17  energy= -0.0487114243464187 | -0.0507309539586081 | -0.0466918947342284 occ= 0
MO #18  energy= -0.0471061696102357 | -0.048165321963852 | -0.0460470156384034 occ= 0
MO #19  energy= -0.045997779972515 | -0.047117240563096 | -0.0448784850793406 occ= 0
MO #20  energy= -0.0459977666530118 | -0.0471172320973652 | -0.0448784917917162 occ= 0
MO #21  energy= -0.0456097155433583 | -0.0467562673877419 | -0.04446292568517  occ= 0
MO #22  energy= -0.00653089049126234 | -0.0183139392309248 | 0.00525215824839549 occ= 0
MO #23  energy= 0.0395704608317107 | 0.0340282476299698 | 0.0451130416516264 occ= 0
MO #24  energy= 0.0428141093752032 | 0.0367197552784241 | 0.048908532775943  occ= 0
MO #25  energy= 0.0428141366954074 | 0.036719776191745  | 0.0489085637948354 occ= 0
MO #26  energy= 0.0439937388001176 | 0.0376648937234594 | 0.0503233912897238 occ= 0
MO #27  energy= 0.0506942362941234 | 0.0392794838914433 | 0.0621089886968035 occ= 0
MO #28  energy= 0.0506942850227517 | 0.039279501241054  | 0.062109068804452  occ= 0
MO #29  energy= 0.0570929880243116 | 0.0409934933716273 | 0.073192482676996  occ= 0
MO #30  energy= 0.0885721367634692 | 0.0800286050491154 | 0.0971156779085613 occ= 0
MO #31  energy= 0.106723055295403  | 0.0787305292218834 | 0.134715581368922  occ= 0
MO #32  energy= 0.993303564124426  | 0.909878005291308  | 1.07672943470015   occ= 0
MO #33  energy= 1.01467794313485   | 0.932417680870704  | 1.09693814674423   occ= 0
MO #34  energy= 1.01467810515635   | 0.932417860097356  | 1.09693830092886   occ= 0
MO #35  energy= 1.0217906997706    | 0.940045143167571  | 1.10353654358089   occ= 0
MO #36  energy= 1.06860330319637   | 1.04052865454952   | 1.09667795184322   occ= 0
MO #37  energy= 1.51410535796698   | 1.46882128248759   | 1.5593894325951    occ= 0
MO #38  energy= 2.44039852702985   | 2.38809165163902   | 2.49270540242067   occ= 0
MO #39  energy= 2.44039874341021   | 2.38809174058233   | 2.49270574623808   occ= 0
MO #40  energy= 2.46780898191101   | 2.39921778509244   | 2.53640017872959   occ= 0
MO #41  energy= 2.85351113273645   | 2.78371485750302   | 2.92330740796988   occ= 0
MO #42  energy= 2.85351114207994   | 2.78371505646605   | 2.92330722769383   occ= 0
MO #43  energy= 2.85558320866463   | 2.75633850900214   | 2.95482790832713   occ= 0
MO #44  energy= 2.86569561723376   | 2.79567617172675   | 2.93571506274077   occ= 0
MO #45  energy= 2.8677437040111    | 2.78351067121022   | 2.95197673681197   occ= 0
MO #46  energy= 2.86774379736441   | 2.78351051207865   | 2.95197708265017   occ= 0
MO #47  energy= 2.8690333218364    | 2.77455069532626   | 2.96351594834654   occ= 0
MO #48  energy= 7.39342724228139   | 7.34271310920871   | 7.44414137535407   occ= 0
MO #49  energy= 7.39342724320791   | 7.342713045513     | 7.44414144090283   occ= 0
MO #50  energy= 7.4096967108413    | 7.35385633136296   | 7.46553709031966   occ= 0
MO #51  energy= 7.40974570864942   | 7.33164274354742   | 7.48784867375144   occ= 0
MO #52  energy= 7.41954634652841   | 7.34730535112137   | 7.49178734193548   occ= 0
MO #53  energy= 7.41954649909113   | 7.34730552712607   | 7.49178747105617   occ= 0
MO #54  energy= 7.42284556677163   | 7.34964883242606   | 7.49604230111722   occ= 0
 ** Mulliken pop on meta-lowdin orthogonal AOs  **
 ** Mulliken pop  **
pop of  0V 3s        1.99967
pop of  0V 4s        0.00017
pop of  0V 5s        0.00011
pop of  0V 6s        0.00001
pop of  0V 7s        0.00000
pop of  0V 3px       1.99982
pop of  0V 3py       1.99982
pop of  0V 3pz       1.99977
pop of  0V 4px       0.00004
pop of  0V 4py       0.00004
pop of  0V 4pz       0.00013
pop of  0V 5px       0.00005
pop of  0V 5py       0.00005
pop of  0V 5pz       0.00005
pop of  0V 6px       0.00000
pop of  0V 6py       0.00000
pop of  0V 6pz       0.00000
pop of  0V 7px       0.00000
pop of  0V 7py       0.00000
pop of  0V 7pz       0.00000
pop of  0V 3dxy      0.99958
pop of  0V 3dyz      0.99926
pop of  0V 3dz^2     0.99903
pop of  0V 3dxz      0.99926
pop of  0V 3dx2-y2    0.00000
pop of  0V 4dxy      0.00011
pop of  0V 4dyz      0.00067
pop of  0V 4dz^2     0.00098
pop of  0V 4dxz      0.00067
pop of  0V 4dx2-y2    0.00000
pop of  0V 5dxy      0.00030
pop of  0V 5dyz      0.00006
pop of  0V 5dz^2     0.00002
pop of  0V 5dxz      0.00006
pop of  0V 5dx2-y2    0.00000
pop of  0V 6dxy      0.00001
pop of  0V 6dyz      0.00000
pop of  0V 6dz^2     0.00000
pop of  0V 6dxz      0.00000
pop of  0V 6dx2-y2    0.00000
pop of  0V 4fy^3     0.00003
pop of  0V 4fxyz     0.00000
pop of  0V 4fyz^2    0.00001
pop of  0V 4fz^3     0.00002
pop of  0V 4fxz^2    0.00001
pop of  0V 4fzx^2    0.00000
pop of  0V 4fx^3     0.00003
pop of  0V 5fy^3     0.00004
pop of  0V 5fxyz     0.00000
pop of  0V 5fyz^2    0.00000
pop of  0V 5fz^3     0.00002
pop of  0V 5fxz^2    0.00000
pop of  0V 5fzx^2    0.00000
pop of  0V 5fx^3     0.00004
 ** Mulliken atomic charges  **
charge of  0V =      1.00000

******** <class 'pyscf.mcscf.mc1step.CASSCF'> flags ********
CAS (4e+0e, 6o), ncore = 4, nvir = 44
max_cycle_macro = 50
max_cycle_micro = 4
conv_tol = 1e-07
conv_tol_grad = None
orbital rotation max_stepsize = 0.02
augmented hessian ah_max_cycle = 30
augmented hessian ah_conv_tol = 1e-12
augmented hessian ah_linear dependence = 1e-14
augmented hessian ah_level shift = 0
augmented hessian ah_start_tol = 2.5
augmented hessian ah_start_cycle = 3
augmented hessian ah_grad_trust_region = 3
kf_trust_region = 3
kf_interval = 4
ci_response_space = 4
ci_grad_trust_region = 3
with_dep4 0
natorb = False
canonicalization = True
sorting_mo_energy = False
chkfile = ./scratch/25338/tmpT2L0Ww
max_memory 4000 MB (current use 201 MB)
internal_rotation = False

******** SHCI flags ********
executable             = /home/bamu3429/softwares/dice/Dice
mpiprefix              = srun -n20
scratchDirectory       = ./scratch/25338
integralFile           = ./FCIDUMP
configFile             = ./input.dat
outputFile             = ./output.dat
maxIter                = 6
sweep_iter             = []
sweep_epsilon          = []
nPTiter                = 0
Stochastic             = True
fullrestart            = False
restart                = False
num_thrds              = 12
memory                 = None

CASCI E = -70.4780471227456  S^2 = 6.0000000
Set conv_tol_grad to 0.000316228
macro iter 1 (6 JK  1 micro), CASSCF E = -70.4780471267367  dE = -3.9910191e-09  S^2 = 6.0000000
               |grad[o]|=6.25e-05  |grad[c]|= None  |ddm|=    0
1-step CASSCF converged in 1 macro (6 JK 1 micro) steps
CASSCF canonicalization
CASSCF energy = -70.4780471267367


--------------------------------------------------
                 ICMPSPT CALCULATION              
--------------------------------------------------

Perturbation type: MRLCC
With fully internally contracted scheme
With third order correction

Preparing necessary RDMs
......production of RDMs took       7.44 sec
Reading binary 4RDM from DICE
......reading the RDM took          1.28 sec

(GOOD) Trace 4RDM:     24.0 =    4*    3*    2*    1
(GOOD) Trace 3RDM:     24.0 =    4*    3*    2
(GOOD) Trace 2RDM:     12.0 =    4*    3
(GOOD) Trace 1RDM:      4.0 =    4

Producing the integrals
......production of INT took      28.53 sec

Energy_core =  -64.51164287
Energy      =  -70.47804713

WARNING: Have to use natural orbitals from CAASCF
         offdiagonal elements:    0.72008835

Basic ingredients written to int/
......savings of INGREDIENTS took      25.65 sec

Second-order:
perturber CCVV --        -0.111073258
perturber CCAV --        -0.058016660
perturber ACVV --        -0.109659693
perturber CCAA --        -0.013728403
perturber AAVV --        -0.044115134
perturber CAAV --        -0.053662752
perturber AAAV --        -0.000132303
perturber AAAC --        -0.000018727
Total:                   -0.390406931

Third-order:              0.000377568

Total PT       --        -0.390029363

