 &FCI NORB=6 ,NELEC=5 ,MS2=5,
  ORBSYM=1,1,1,1,1,1,
  ISYM=1,
 &END
  7.448570349123e-01    1  1  1  1
  3.597774375419e-08    2  1  1  1
  2.915590662428e-02    2  1  2  1
  6.865455463646e-01    2  2  1  1
  5.305784908614e-08    2  2  2  1
  7.448574979357e-01    2  2  2  2
  2.845190162279e-08    3  1  1  1
  4.101287365999e-03    3  1  2  1
 -2.345689777472e-03    3  1  2  2
  2.539776006379e-02    3  1  3  1
 -8.202653578472e-03    3  2  1  1
  1.172819990955e-03    3  2  2  1
 -4.743581669375e-08    3  2  2  2
 -2.286373817050e-03    3  2  3  1
  2.679706327933e-02    3  2  3  2
  6.940615597645e-01    3  3  1  1
  4.572725010266e-03    3  3  2  1
  6.912633195934e-01    3  3  2  2
 -5.413114562260e-08    3  3  3  1
 -8.428333424011e-08    3  3  3  2
  7.448570351696e-01    3  3  3  3
 -4.745526271399e-09    4  1  1  1
 -4.568301847267e-04    4  1  2  1
 -8.146859114267e-03    4  1  2  2
  3.052160934545e-03    4  1  3  1
  2.041385936469e-04    4  1  3  2
  8.783489115290e-03    4  1  3  3
  2.383690103498e-02    4  1  4  1
  9.138005056924e-04    4  2  1  1
  4.073514885552e-03    4  2  2  1
  4.572082029051e-08    4  2  2  2
  4.148241846727e-03    4  2  3  1
 -6.066092993090e-03    4  2  3  2
  7.344403714818e-03    4  2  3  3
  3.377215407595e-03    4  2  4  1
  2.364774442439e-02    4  2  4  2
 -6.104305243132e-03    4  3  1  1
 -4.352327426761e-03    4  3  2  1
  1.213200319286e-02    4  3  2  2
 -4.391726239928e-03    4  3  3  1
 -3.672145719199e-03    4  3  3  2
  9.698218817257e-08    4  3  3  3
 -3.936950665058e-03    4  3  4  1
  2.292596264905e-03    4  3  4  2
  2.876383087677e-02    4  3  4  3
  6.971833862226e-01    4  4  1  1
 -6.754359255056e-03    4  4  2  1
  6.975621753533e-01    4  4  2  2
  7.874068610922e-03    4  4  3  1
 -4.585258362964e-03    4  4  3  2
  6.873292406504e-01    4  4  3  3
 -4.914021669851e-08    4  4  4  1
  2.777306146697e-08    4  4  4  2
  3.413060168526e-09    4  4  4  3
  7.448575286091e-01    4  4  4  4
 -5.365840173595e-10    5  1  1  1
  4.558033791965e-03    5  1  2  1
  2.581441987593e-03    5  1  2  2
 -5.215099157474e-03    5  1  3  1
 -1.854742607690e-03    5  1  3  2
  8.712256543350e-03    5  1  3  3
 -1.767386222267e-04    5  1  4  1
  4.194470514583e-03    5  1  4  2
  5.013574716052e-03    5  1  4  3
 -1.129374707906e-02    5  1  4  4
  2.667555569193e-02    5  1  5  1
 -9.116059365144e-03    5  2  1  1
 -1.290719711464e-03    5  2  2  1
 -2.471711716335e-08    5  2  2  2
  3.336011736682e-03    5  2  3  1
  3.184662876439e-03    5  2  3  2
  7.104649994775e-03    5  2  3  3
  6.146072681849e-03    5  2  4  1
  2.701350078722e-03    5  2  4  2
  1.191743832566e-03    5  2  4  3
  2.011298536304e-03    5  2  4  4
 -1.090845802311e-03    5  2  5  1
  2.546555250913e-02    5  2  5  2
  1.043013903409e-02    5  3  1  1
 -1.481324490860e-03    5  3  2  1
 -6.369274856307e-03    5  3  2  2
 -4.356088720813e-03    5  3  3  1
 -3.552362934408e-03    5  3  3  2
  3.406362548903e-08    5  3  3  3
 -2.726121277829e-04    5  3  4  1
 -9.921631108319e-04    5  3  4  2
 -2.524596310539e-03    5  3  4  3
 -4.060842963917e-03    5  3  4  4
  2.764164134728e-03    5  3  5  1
 -6.393884103685e-03    5  3  5  2
  2.410736898267e-02    5  3  5  3
  3.535374087363e-04    5  4  1  1
 -1.034050922262e-02    5  4  2  1
 -5.402755686410e-03    5  4  2  2
 -4.741011699514e-03    5  4  3  1
 -1.995204572038e-04    5  4  3  2
  5.049229521154e-03    5  4  3  3
  5.646799331709e-03    5  4  4  1
 -1.005728316496e-03    5  4  4  2
  2.030423356816e-03    5  4  4  3
 -1.274334405785e-07    5  4  4  4
  3.182792107739e-04    5  4  5  1
  4.129002736617e-03    5  4  5  2
  3.013914369502e-03    5  4  5  3
  2.881756460723e-02    5  4  5  4
  6.915061056216e-01    5  5  1  1
  2.181714113562e-03    5  5  2  1
  6.939262837255e-01    5  5  2  2
 -5.528343646749e-03    5  5  3  1
  1.278782045168e-02    5  5  3  2
  6.966423568937e-01    5  5  3  3
 -6.364595417468e-04    5  5  4  1
 -8.258081866625e-03    5  5  4  2
 -6.027707684576e-03    5  5  4  3
  6.872221724269e-01    5  5  4  4
 -1.321128823649e-08    5  5  5  1
 -5.673295362786e-09    5  5  5  2
 -1.349372034144e-08    5  5  5  3
  3.671213695579e-08    5  5  5  4
  7.448573512546e-01    5  5  5  5
  2.163375330627e-03    6  1  1  1
 -1.494910893288e-03    6  1  2  1
 -1.525752063860e-03    6  1  2  2
  7.697805378724e-05    6  1  3  1
 -1.019159990365e-03    6  1  3  2
 -1.270048917568e-03    6  1  3  3
  1.285851404662e-04    6  1  4  1
 -4.938044813588e-04    6  1  4  2
 -7.963773963564e-04    6  1  4  3
  1.502900122784e-03    6  1  4  4
 -1.208157430866e-03    6  1  5  1
 -9.030603429508e-04    6  1  5  2
  1.233496043237e-03    6  1  5  3
  9.490700736526e-04    6  1  5  4
 -8.634992869762e-04    6  1  5  5
  6.792951264465e-03    6  1  6  1
 -1.492566228619e-03    6  2  1  1
 -1.526786197859e-03    6  2  2  1
  7.456643531287e-04    6  2  2  2
 -1.019049405407e-03    6  2  3  1
  1.612249097608e-03    6  2  3  2
 -1.204759997834e-03    6  2  3  3
 -4.938160331031e-04    6  2  4  1
 -1.665307919696e-03    6  2  4  2
  3.723241552965e-04    6  2  4  3
  2.582627598070e-04    6  2  4  4
 -9.029543775329e-04    6  2  5  1
  3.619575680543e-04    6  2  5  2
 -5.192215773528e-04    6  2  5  3
  8.565968016639e-04    6  2  5  4
  1.704898756141e-03    6  2  5  5
 -1.984920761293e-08    6  2  6  1
  6.792790877066e-03    6  2  6  2
  7.039501933987e-05    6  3  1  1
 -1.019338999242e-03    6  3  2  1
  1.606480483481e-03    6  3  2  2
 -1.271698316365e-03    6  3  3  1
 -1.207166259941e-03    6  3  3  2
 -5.941018727467e-05    6  3  3  3
 -7.965273225202e-04    6  3  4  1
  3.720758721718e-04    6  3  4  2
  2.254402246977e-03    6  3  4  3
 -3.554914865791e-04    6  3  4  4
  1.233356870105e-03    6  3  5  1
 -5.192726333292e-04    6  3  5  2
  4.832604325841e-04    6  3  5  3
  7.053104842348e-04    6  3  5  4
 -1.295411742884e-03    6  3  5  5
 -7.347426317819e-09    6  3  6  1
  5.994069174317e-08    6  3  6  2
  6.793017650946e-03    6  3  6  3
  1.381271610217e-04    6  4  1  1
 -4.938934901597e-04    6  4  2  1
 -1.656231893884e-03    6  4  2  2
 -7.960034440921e-04    6  4  3  1
  3.720753136472e-04    6  4  3  2
  2.263530370426e-03    6  4  3  3
  1.501793688482e-03    6  4  4  1
  2.560041412326e-04    6  4  4  2
 -3.493893568890e-04    6  4  4  3
 -1.451836105032e-03    6  4  4  4
  9.485872580364e-04    6  4  5  1
  8.567476304008e-04    6  4  5  2
  7.052968134695e-04    6  4  5  3
  1.951760493698e-03    6  4  5  4
  7.558524792038e-04    6  4  5  5
  8.255874401904e-08    6  4  6  1
 -2.432068022327e-08    6  4  6  2
 -9.080322175406e-08    6  4  6  3
  6.792893137852e-03    6  4  6  4
 -1.208989981536e-03    6  5  1  1
 -9.033344168695e-04    6  5  2  1
  3.614092851474e-04    6  5  2  2
  1.233374171717e-03    6  5  3  1
 -5.191761169003e-04    6  5  3  2
  4.830164153580e-04    6  5  3  3
  9.490892382906e-04    6  5  4  1
  8.567206215053e-04    6  5  4  2
  7.054843975210e-04    6  5  4  3
  1.951311244805e-03    6  5  4  4
 -8.649288391907e-04    6  5  5  1
  1.703339539284e-03    6  5  5  2
 -1.288937203544e-03    6  5  5  3
  7.467484576820e-04    6  5  5  4
 -1.589533103369e-03    6  5  5  5
 -1.397631525038e-08    6  5  6  1
  4.477430596652e-08    6  5  6  2
  2.748419879679e-08    6  5  6  3
  8.158519777996e-08    6  5  6  4
  6.793020562741e-03    6  5  6  5
  2.989840426293e-01    6  6  1  1
 -1.819755013886e-08    6  6  2  1
  2.989839215212e-01    6  6  2  2
 -5.833881977174e-09    6  6  3  1
  5.016293071640e-08    6  6  3  2
  2.989840732396e-01    6  6  3  3
  8.660068362426e-08    6  6  4  1
 -1.827240308458e-08    6  6  4  2
 -8.870726129025e-08    6  6  4  3
  2.989839884571e-01    6  6  4  4
 -1.949124967140e-08    6  6  5  1
  3.716453329309e-08    6  6  5  2
  2.698505006605e-08    6  6  5  3
  7.466659533050e-08    6  6  5  4
  2.989840815748e-01    6  6  5  5
  3.781504021207e-07    6  6  6  1
  4.481373265573e-07    6  6  6  2
 -1.382075284008e-06    6  6  6  3
  2.021198245668e-06    6  6  6  4
 -1.093903834557e-07    6  6  6  5
  2.316430180460e-01    6  6  6  6
 -3.309446705279e+00    1  1  0  0
 -1.180434950908e-07    2  1  0  0
 -3.309447488516e+00    2  2  0  0
 -4.598679258117e-10    3  1  0  0
  1.198940940504e-07    3  2  0  0
 -3.309446691149e+00    3  3  0  0
 -1.458601701714e-07    4  1  0  0
 -1.295623842287e-07    4  2  0  0
 -3.514838648775e-09    4  3  0  0
 -3.309447331153e+00    4  4  0  0
  5.175454702553e-08    5  1  0  0
  7.100549363701e-08    5  2  0  0
 -5.280951005794e-08    5  3  0  0
 -2.528138082820e-09    5  4  0  0
 -3.309447271323e+00    5  5  0  0
 -5.829662853417e-06    6  1  0  0
 -9.364486297710e-06    6  2  0  0
  2.733918250037e-05    6  3  0  0
 -4.038980962509e-05    6  4  0  0
  2.270446717275e-06    6  5  0  0
 -1.675567522416e+00    6  6  0  0
    -76.111749412652   0  0  0  0
