#INFO: **** input file is /projects/bamu3429/BENCHMARK/fresh_atoms/MRPT/vdz/atoms/Cr_1/mrpt.py ****
import json
from pyscf import gto,scf,mcscf, fci, lo, ci, cc
from pyscf.scf import ROHF, UHF,ROKS
import numpy as np
import pandas as pd

# THIS IS WERE IT STARTS ====================================

df=json.load(open("../../../trail.json"))

spins={'Sc':1, 'Ti':2, 'V':3, 'Cr':6, 'Mn':5, 'Fe':4, 'Cu':1}

nd={'Sc':(1,0), 'Ti':(2,0), 'V':(3,0), 'Cr':(5,0), 'Mn':(5,0), 'Fe':(5,1), 'Cu':(5,5)}

cas={'Sc':3, 'Ti':4, 'V':5, 'Cr':6, 'Mn':7, 'Fe':8, 'Cu':11}

datacsv={}
for nm in ['atom','charge','method','basis','pseudopotential','hf',
           'totalenergy','totalenergy-stocherr','totalenergy-syserr']:
  datacsv[nm]=[]

basis='vdz'
el='Cr'
charge=1

mol=gto.Mole()
mol.ecp={}
mol.basis={}
mol.ecp[el]=gto.basis.parse_ecp(df[el]['ecp'])
mol.basis[el]=gto.basis.parse(df[el][basis])
mol.charge=charge
if el == 'Cr' or el == 'Cu':
  mol.spin=spins[el]-charge
else:
  mol.spin=spins[el]+charge
mol.build(atom="%s 0. 0. 0."%el,verbose=4)

m=ROHF(mol)
m.level_shift=1000.0
dm=m.from_chk("../../../../HF/atoms/"+el+basis+str(charge)+".chk")
hf=m.kernel(dm)
m.analyze()

from pyscf.shciscf import shci
mc = shci.SHCISCF(m, 6, cas[el]-charge)
#mc.fcisolver.conv_tol = 1e-14
mc.fcisolver.mpiprefix="srun -n20"
mc.fcisolver.num_thrds=12
mc.verbose = 4
cas=mc.kernel()[0]
 
from pyscf.icmpspt import icmpspt
pt=icmpspt.icmpspt(mc,rdmM=500, PTM=1000,\
                          pttype="MRLCC",\
                          third_order=True,\
                          fully_ic=True,\
                          do_dm4=True)

datacsv['atom'].append(el)
datacsv['charge'].append(charge)
datacsv['method'].append('MRPT')
datacsv['basis'].append(basis)
datacsv['pseudopotential'].append('trail')
datacsv['hf'].append(hf)
datacsv['totalenergy'].append(cas+pt)
datacsv['totalenergy-stocherr'].append(0.0)
datacsv['totalenergy-syserr'].append(0.0)
pd.DataFrame(datacsv).to_csv(el+".csv",index=False)

#INFO: ******************** input file end ********************


System: ('Linux', 'bnode0302.rc.int.colorado.edu', '3.10.0-514.41.1.el7.x86_64', '#1 SMP Wed Jan 17 10:26:16 EST 2018', 'x86_64', 'x86_64')  Threads 28
Python 2.7.11 (default, Mar 22 2016, 01:42:54) 
[GCC Intel(R) C++ gcc 4.8 mode]
numpy 1.11.1  scipy 0.17.1
Date: Wed Apr 18 12:03:10 2018
PySCF version 1.4.6
PySCF path  /projects/bamu3429/softwares/pyscf_uptodate/pyscf
GIT ORIG_HEAD f3591ef22170896a4cdc2aadaa6f5da388ffcadb
GIT HEAD      ref: refs/heads/master
GIT master branch  1847583fb1d2472321833d3c71c8b7008e5fabf5

[INPUT] VERBOSE 4
[INPUT] num atoms = 1
[INPUT] num electrons = 13
[INPUT] charge = 1
[INPUT] spin (= nelec alpha-beta = 2S) = 5
[INPUT] symmetry False subgroup None
[INPUT]  1 Cr     0.000000000000   0.000000000000   0.000000000000 AA    0.000000000000   0.000000000000   0.000000000000 Bohr
[INPUT] ---------------- BASIS SET ---------------- 
[INPUT] l, kappa, [nprim/nctr], expnt,             c_1 c_2 ...
[INPUT] Cr
[INPUT] 0    0    [12   /1   ]  41.45590127       0.010332
                                22.20089455       -0.091393
                                12.37022616       0.412444
                                7.15443966        -0.722409
                                3.63012556        0.039693
                                1.88942247        0.321055
                                1.04381355        0.652182
                                0.47307333        0.264443
                                0.22628807        -0.008646
                                0.10750747        0.012188
                                0.05101028        -0.00242
                                0.0242372         0.001733
[INPUT] 0    0    [12   /1   ]  41.45590127       -0.001971
                                22.20089455       0.019152
                                12.37022616       -0.094562
                                7.15443966        0.178991
                                3.63012556        -0.015716
                                1.88942247        -0.084882
                                1.04381355        -0.243744
                                0.47307333        -0.214624
                                0.22628807        0.055092
                                0.10750747        0.415903
                                0.05101028        0.543473
                                0.0242372         0.170131
[INPUT] 0    0    [12   /1   ]  41.45590127       -0.005874
                                22.20089455       0.067618
                                12.37022616       -0.389148
                                7.15443966        0.863039
                                3.63012556        -0.192494
                                1.88942247        -1.243222
                                1.04381355        -0.159486
                                0.47307333        0.70074
                                0.22628807        0.796397
                                0.10750747        0.153618
                                0.05101028        -0.585106
                                0.0242372         -0.29462
[INPUT] 0    0    [1    /1   ]  0.0242372            1
[INPUT] 0    0    [1    /1   ]  0.01151614           1
[INPUT] 1    0    [12   /1   ]  28.88080716       -0.002973
                                13.19380569       0.044202
                                7.25722596        -0.232476
                                4.84342676        0.167654
                                2.76949909        0.179744
                                1.50719356        0.46058
                                0.72516508        0.338218
                                0.36385743        0.097984
                                0.16204617        0.012145
                                0.07447705        -0.000948
                                0.03422994        0.000821
                                0.01573221        -0.00022
[INPUT] 1    0    [12   /1   ]  28.88080716       0.000536
                                13.19380569       -0.009363
                                7.25722596        0.054752
                                4.84342676        -0.042977
                                2.76949909        -0.049244
                                1.50719356        -0.128712
                                0.72516508        -0.11682
                                0.36385743        0.044517
                                0.16204617        0.322192
                                0.07447705        0.482878
                                0.03422994        0.275764
                                0.01573221        0.025472
[INPUT] 1    0    [12   /1   ]  28.88080716       -0.000562
                                13.19380569       0.035351
                                7.25722596        -0.310475
                                4.84342676        0.257585
                                2.76949909        0.754226
                                1.50719356        0.194922
                                0.72516508        -0.904177
                                0.36385743        -0.438274
                                0.16204617        0.529934
                                0.07447705        0.455686
                                0.03422994        0.027191
                                0.01573221        0.005171
[INPUT] 1    0    [1    /1   ]  0.01573221           1
[INPUT] 1    0    [1    /1   ]  0.00723058           1
[INPUT] 2    0    [10   /1   ]  46.50908408       0.000358
                                21.60133229       -0.010512
                                11.03652449       0.11118
                                4.54288797        0.164184
                                2.18180243        0.267436
                                1.04009058        0.310836
                                0.48262909        0.28353
                                0.21570372        0.173079
                                0.10059873        0.057279
                                0.04653409        0.00937
[INPUT] 2    0    [10   /1   ]  46.50908408       0.000574
                                21.60133229       0.006454
                                11.03652449       -0.106748
                                4.54288797        -0.214222
                                2.18180243        -0.409175
                                1.04009058        -0.082468
                                0.48262909        0.284806
                                0.21570372        0.41458
                                0.10059873        0.246257
                                0.04653409        0.05398
[INPUT] 2    0    [1    /1   ]  0.04653409           1
[INPUT] 2    0    [1    /1   ]  0.02152533           1
[INPUT] 3    0    [1    /1   ]  2.094117             1
[INPUT] 3    0    [1    /1   ]  0.9686785            1
nuclear repulsion = 0
number of shells = 16
number of NR pGTOs = 276
number of NR cGTOs = 54
basis = {'Cr': [[0, [41.45590127, 0.010332], [22.20089455, -0.091393], [12.37022616, 0.412444], [7.15443966, -0.722409], [3.63012556, 0.039693], [1.88942247, 0.321055], [1.04381355, 0.652182], [0.47307333, 0.264443], [0.22628807, -0.008646], [0.10750747, 0.012188], [0.05101028, -0.00242], [0.0242372, 0.001733]], [0, [41.45590127, -0.001971], [22.20089455, 0.019152], [12.37022616, -0.094562], [7.15443966, 0.178991], [3.63012556, -0.015716], [1.88942247, -0.084882], [1.04381355, -0.243744], [0.47307333, -0.214624], [0.22628807, 0.055092], [0.10750747, 0.415903], [0.05101028, 0.543473], [0.0242372, 0.170131]], [0, [41.45590127, -0.005874], [22.20089455, 0.067618], [12.37022616, -0.389148], [7.15443966, 0.863039], [3.63012556, -0.192494], [1.88942247, -1.243222], [1.04381355, -0.159486], [0.47307333, 0.70074], [0.22628807, 0.796397], [0.10750747, 0.153618], [0.05101028, -0.585106], [0.0242372, -0.29462]], [0, [0.0242372, 1.0]], [0, [0.01151614, 1.0]], [1, [28.88080716, -0.002973], [13.19380569, 0.044202], [7.25722596, -0.232476], [4.84342676, 0.167654], [2.76949909, 0.179744], [1.50719356, 0.46058], [0.72516508, 0.338218], [0.36385743, 0.097984], [0.16204617, 0.012145], [0.07447705, -0.000948], [0.03422994, 0.000821], [0.01573221, -0.00022]], [1, [28.88080716, 0.000536], [13.19380569, -0.009363], [7.25722596, 0.054752], [4.84342676, -0.042977], [2.76949909, -0.049244], [1.50719356, -0.128712], [0.72516508, -0.11682], [0.36385743, 0.044517], [0.16204617, 0.322192], [0.07447705, 0.482878], [0.03422994, 0.275764], [0.01573221, 0.025472]], [1, [28.88080716, -0.000562], [13.19380569, 0.035351], [7.25722596, -0.310475], [4.84342676, 0.257585], [2.76949909, 0.754226], [1.50719356, 0.194922], [0.72516508, -0.904177], [0.36385743, -0.438274], [0.16204617, 0.529934], [0.07447705, 0.455686], [0.03422994, 0.027191], [0.01573221, 0.005171]], [1, [0.01573221, 1.0]], [1, [0.00723058, 1.0]], [2, [46.50908408, 0.000358], [21.60133229, -0.010512], [11.03652449, 0.11118], [4.54288797, 0.164184], [2.18180243, 0.267436], [1.04009058, 0.310836], [0.48262909, 0.28353], [0.21570372, 0.173079], [0.10059873, 0.057279], [0.04653409, 0.00937]], [2, [46.50908408, 0.000574], [21.60133229, 0.006454], [11.03652449, -0.106748], [4.54288797, -0.214222], [2.18180243, -0.409175], [1.04009058, -0.082468], [0.48262909, 0.284806], [0.21570372, 0.41458], [0.10059873, 0.246257], [0.04653409, 0.05398]], [2, [0.04653409, 1.0]], [2, [0.02152533, 1.0]], [3, [2.094117, 1.0]], [3, [0.9686785, 1.0]]]}
ecp = {'Cr': [10, [[-1, [[], [[13.07675203, 14.0]], [[15.15807582, 1258.1555038], [4.62785686, -98.60998187], [15.41136599, -6552.46055066], [15.38690637, 5353.09061557]], [[5.24897308, 183.07452839]]]], [0, [[], [], [[9.77680844, -91901.2080948], [9.95980111, 96320.14803227], [8.62275214, 3928.3135917], [12.29288144, -10977.62459544], [18.41316592, -1741.60409682], [16.38541961, 4413.26493033]], []]], [1, [[], [], [[12.00099996, -22156.17142851], [11.46524435, 21551.07876111], [16.23852226, 3703.78784703], [18.43861108, -1424.18632323], [8.88877941, -1964.93568469], [7.52644784, 317.50498882]], []]], [2, [[], [], [[11.1066837, -5435.29666496], [8.49801115, 7350.69608766], [12.28065533, 2443.80334995], [8.1885354, -5401.76770998], [14.34306836, 3881.23075486], [15.24784181, -2855.87137953]], []]]]]}
CPU time:         3.59


******** <class 'pyscf.scf.rohf.ROHF'> flags ********
method = ROHF
initial guess = minao
damping factor = 0
level shift factor = 1000.0
DIIS = <class 'pyscf.scf.diis.CDIIS'>
DIIS start cycle = 1
DIIS space = 8
SCF tol = 1e-09
SCF gradient tol = None
max. SCF cycles = 50
direct_scf = True
direct_scf_tol = 1e-13
chkfile to save SCF result = /rc_scratch/bamu3429/tmpWlmE31
max_memory 4000 MB (current use 163 MB)
num. doubly occ = 4  num. singly occ = 5
Set gradient conv threshold to 3.16228e-05
init E= -85.9984080016703
  HOMO = 499.779744664668  LUMO = 999.802370080015
cycle= 1 E= -85.9984080016707  delta_E= -3.27e-13  |g|= 1.15e-05  |ddm|= 2.69e-08
  HOMO = -0.220255335246353  LUMO = -0.197629919900896
Extra cycle  E= -85.998408001549  delta_E= 1.22e-10  |g|= 8.98e-06  |ddm|= 4.82e-05
converged SCF energy = -85.998408001549
**** MO energy ****
                Roothaan           | alpha              | beta
MO #1   energy= -3.6777311810705   | -3.86405740363377  | -3.49140495850733  occ= 2
MO #2   energy= -2.37626113273882  | -2.60506080272679  | -2.14746146275174  occ= 2
MO #3   energy= -2.37626098634855  | -2.60506057759914  | -2.1474613950977   occ= 2
MO #4   energy= -2.3762609495902   | -2.60506042336748  | -2.147461475813    occ= 2
MO #5   energy= -0.22025556025562  | -0.645216294294611 | 0.204706057149127  occ= 1
MO #6   energy= -0.220255513992193 | -0.645216441275147 | 0.20470637456296   occ= 1
MO #7   energy= -0.220255484277368 | -0.645216849398471 | 0.204706103225726  occ= 1
MO #8   energy= -0.220255443421977 | -0.64521739629574  | 0.204706259986197  occ= 1
MO #9   energy= -0.220255335246353 | -0.645217730619839 | 0.204706340123704  occ= 1
MO #10  energy= -0.197629919900896 | -0.214612287828697 | -0.180647552173326 occ= 0
MO #11  energy= -0.109797976141163 | -0.115997838246814 | -0.103598114054942 occ= 0
MO #12  energy= -0.109797932227942 | -0.115997872021468 | -0.103597992469616 occ= 0
MO #13  energy= -0.109797915631955 | -0.115997855317531 | -0.103597975949651 occ= 0
MO #14  energy= -0.0719865446109381 | -0.074802006588601 | -0.0691710826562263 occ= 0
MO #15  energy= -0.0495261488242937 | -0.0513132046001586 | -0.0477390930504584 occ= 0
MO #16  energy= -0.0495261384839335 | -0.0513132157725256 | -0.0477390611961376 occ= 0
MO #17  energy= -0.0495261357710736 | -0.0513132146276962 | -0.047739056914842 occ= 0
MO #18  energy= -0.0473419953386979 | -0.0483566974121054 | -0.0463271976654336 occ= 0
MO #19  energy= -0.0473419690905274 | -0.0483566950455474 | -0.0463272932087646 occ= 0
MO #20  energy= -0.0473419465812126 | -0.0483566880152273 | -0.0463273145864214 occ= 0
MO #21  energy= -0.0473419246372117 | -0.0483566641857466 | -0.046327305450086 occ= 0
MO #22  energy= -0.0473418412362476 | -0.0483566569361243 | -0.046327598247265 occ= 0
MO #23  energy= 0.02283387051928   | 0.00970969554832272 | 0.0359580454884079 occ= 0
MO #24  energy= 0.0228339079519336 | 0.00970959791753438 | 0.0359582179811851 occ= 0
MO #25  energy= 0.022833920053389  | 0.0097095912079161 | 0.0359582488980254 occ= 0
MO #26  energy= 0.0534537471778824 | 0.0467081168306527 | 0.0601997116816263 occ= 0
MO #27  energy= 0.0534538046706871 | 0.0467081063904615 | 0.0601995580174134 occ= 0
MO #28  energy= 0.0534538982715818 | 0.0467081593672933 | 0.0601996321186136 occ= 0
MO #29  energy= 0.0534540184016495 | 0.0467081793253259 | 0.0601995254010253 occ= 0
MO #30  energy= 0.0534540704710435 | 0.0467081954312338 | 0.060199493290741  occ= 0
MO #31  energy= 0.0834616811863672 | 0.0732594458149444 | 0.0936639165489993 occ= 0
MO #32  energy= 1.22618970768363   | 1.12918494439954   | 1.32319490190241   occ= 0
MO #33  energy= 1.22618990461427   | 1.12918512775702   | 1.32319491966603   occ= 0
MO #34  energy= 1.22619036097521   | 1.12918551275384   | 1.32319514109067   occ= 0
MO #35  energy= 1.22619061603694   | 1.12918574225698   | 1.3231952759463    occ= 0
MO #36  energy= 1.22619076536408   | 1.1291858711022    | 1.3231953323395    occ= 0
MO #37  energy= 1.6336912089473    | 1.57311590534602   | 1.69426651254911   occ= 0
MO #38  energy= 2.67897282243548   | 2.58029104801646   | 2.77765459685459   occ= 0
MO #39  energy= 2.67897284295837   | 2.5802910641062    | 2.77765462181049   occ= 0
MO #40  energy= 2.67897289224398   | 2.58029110491479   | 2.77765467957327   occ= 0
MO #41  energy= 2.6789729812571    | 2.5802911638434    | 2.77765479867071   occ= 0
MO #42  energy= 2.67897298778299   | 2.58029116972159   | 2.77765480584427   occ= 0
MO #43  energy= 2.67897315044918   | 2.58029124210321   | 2.77765505879506   occ= 0
MO #44  energy= 2.67897315109649   | 2.58029124368857   | 2.7776550585043    occ= 0
MO #45  energy= 2.7225123198498    | 2.64191683842773   | 2.80310780127186   occ= 0
MO #46  energy= 2.72251244786107   | 2.64191694946343   | 2.80310794625906   occ= 0
MO #47  energy= 2.72251249752823   | 2.6419170234182    | 2.80310797163831   occ= 0
MO #48  energy= 7.43666791547363   | 7.34065042426866   | 7.53268540667862   occ= 0
MO #49  energy= 7.43666792074177   | 7.34065049018308   | 7.5326853513005    occ= 0
MO #50  energy= 7.43666793611303   | 7.34065050161924   | 7.53268537060685   occ= 0
MO #51  energy= 7.43666795916      | 7.34065054390055   | 7.5326853744195    occ= 0
MO #52  energy= 7.43666797094676   | 7.34065054494234   | 7.53268539695121   occ= 0
MO #53  energy= 7.43666804373747   | 7.34065072641121   | 7.53268536106373   occ= 0
MO #54  energy= 7.43666804887807   | 7.34065074785297   | 7.53268534990316   occ= 0
 ** Mulliken pop on meta-lowdin orthogonal AOs  **
 ** Mulliken pop  **
pop of  0Cr 3s        1.99991
pop of  0Cr 4s        0.00000
pop of  0Cr 5s        0.00009
pop of  0Cr 6s        0.00000
pop of  0Cr 7s        0.00000
pop of  0Cr 3px       1.99989
pop of  0Cr 3py       1.99989
pop of  0Cr 3pz       1.99989
pop of  0Cr 4px       0.00006
pop of  0Cr 4py       0.00006
pop of  0Cr 4pz       0.00006
pop of  0Cr 5px       0.00004
pop of  0Cr 5py       0.00004
pop of  0Cr 5pz       0.00004
pop of  0Cr 6px       0.00000
pop of  0Cr 6py       0.00000
pop of  0Cr 6pz       0.00000
pop of  0Cr 7px       0.00000
pop of  0Cr 7py       0.00000
pop of  0Cr 7pz       0.00000
pop of  0Cr 3dxy      0.99964
pop of  0Cr 3dyz      0.99964
pop of  0Cr 3dz^2     0.99964
pop of  0Cr 3dxz      0.99964
pop of  0Cr 3dx2-y2    0.99964
pop of  0Cr 4dxy      0.00028
pop of  0Cr 4dyz      0.00028
pop of  0Cr 4dz^2     0.00028
pop of  0Cr 4dxz      0.00028
pop of  0Cr 4dx2-y2    0.00028
pop of  0Cr 5dxy      0.00007
pop of  0Cr 5dyz      0.00007
pop of  0Cr 5dz^2     0.00007
pop of  0Cr 5dxz      0.00007
pop of  0Cr 5dx2-y2    0.00007
pop of  0Cr 6dxy      0.00001
pop of  0Cr 6dyz      0.00001
pop of  0Cr 6dz^2     0.00001
pop of  0Cr 6dxz      0.00001
pop of  0Cr 6dx2-y2    0.00001
pop of  0Cr 4fy^3     0.00000
pop of  0Cr 4fxyz     0.00000
pop of  0Cr 4fyz^2    0.00000
pop of  0Cr 4fz^3     0.00000
pop of  0Cr 4fxz^2    0.00000
pop of  0Cr 4fzx^2    0.00000
pop of  0Cr 4fx^3     0.00000
pop of  0Cr 5fy^3     0.00000
pop of  0Cr 5fxyz     0.00000
pop of  0Cr 5fyz^2    0.00000
pop of  0Cr 5fz^3     0.00000
pop of  0Cr 5fxz^2    0.00000
pop of  0Cr 5fzx^2    0.00000
pop of  0Cr 5fx^3     0.00000
 ** Mulliken atomic charges  **
charge of  0Cr =      1.00000

******** <class 'pyscf.mcscf.mc1step.CASSCF'> flags ********
CAS (5e+0e, 6o), ncore = 4, nvir = 44
max_cycle_macro = 50
max_cycle_micro = 4
conv_tol = 1e-07
conv_tol_grad = None
orbital rotation max_stepsize = 0.02
augmented hessian ah_max_cycle = 30
augmented hessian ah_conv_tol = 1e-12
augmented hessian ah_linear dependence = 1e-14
augmented hessian ah_level shift = 0
augmented hessian ah_start_tol = 2.5
augmented hessian ah_start_cycle = 3
augmented hessian ah_grad_trust_region = 3
kf_trust_region = 3
kf_interval = 4
ci_response_space = 4
ci_grad_trust_region = 3
with_dep4 0
natorb = False
canonicalization = True
sorting_mo_energy = False
chkfile = ./scratch/186129/tmp40pCPP
max_memory 4000 MB (current use 213 MB)
internal_rotation = False

******** SHCI flags ********
executable             = /home/bamu3429/softwares/dice/Dice
mpiprefix              = srun -n20
scratchDirectory       = ./scratch/186129
integralFile           = ./FCIDUMP
configFile             = ./input.dat
outputFile             = ./output.dat
maxIter                = 6
sweep_iter             = []
sweep_epsilon          = []
nPTiter                = 0
Stochastic             = True
fullrestart            = False
restart                = False
num_thrds              = 12
memory                 = None

CASCI E = -85.99840800155  S^2 = 8.7500000
Set conv_tol_grad to 0.000316228
macro iter 1 (1 JK  1 micro), CASSCF E = -85.99840800155  dE = 0  S^2 = 8.7500000
               |grad[o]|=7.83e-06  |grad[c]|= None  |ddm|=    0
1-step CASSCF converged in 1 macro (1 JK 1 micro) steps
CASSCF canonicalization
CASSCF energy = -85.99840800155


--------------------------------------------------
                 ICMPSPT CALCULATION              
--------------------------------------------------

Perturbation type: MRLCC
With fully internally contracted scheme
With third order correction

Preparing necessary RDMs
......production of RDMs took       9.63 sec
Reading binary 4RDM from DICE
......reading the RDM took          1.21 sec

(GOOD) Trace 4RDM:    120.0 =    5*    4*    3*    2
(GOOD) Trace 3RDM:     60.0 =    5*    4*    3
(GOOD) Trace 2RDM:     20.0 =    5*    4
(GOOD) Trace 1RDM:      5.0 =    5

Producing the integrals
......production of INT took      28.50 sec

Energy_core =  -76.11174941
Energy      =  -85.99840800

WARNING: Have to use natural orbitals from CAASCF
         offdiagonal elements:    0.53286070

Basic ingredients written to int/
......savings of INGREDIENTS took      25.84 sec

Second-order:
perturber CCVV --        -0.080918797
perturber CCAV --        -0.046205848
perturber ACVV --        -0.112547641
perturber CCAA --        -0.023736544
perturber AAVV --        -0.073434754
perturber CAAV --        -0.080947912
perturber AAAV --        -0.000000000
perturber AAAC --        -0.000000022
Total:                   -0.417791517

Third-order:              0.000532258

Total PT       --        -0.417259259

