 &FCI NORB=6 ,NELEC=11 ,MS2=1,
  ORBSYM=1,1,1,1,1,1,
  ISYM=1,
 &END
  1.004591802782e+00    1  1  1  1
  4.379127253918e-02    2  1  2  1
  9.170092577034e-01    2  2  1  1
  1.004591802782e+00    2  2  2  2
 -8.663054745862e-05    3  1  2  1
 -9.794025348129e-05    3  1  2  2
  2.216059068301e-02    3  1  3  1
  1.732610949173e-04    3  2  1  1
  4.897012674059e-05    3  2  2  1
  1.467130879861e-03    3  2  3  1
  4.196785624322e-02    3  2  3  2
  9.602706214158e-01    3  3  1  1
 -2.934261759723e-03    3  3  2  1
  9.206560902954e-01    3  3  2  2
  1.004591802782e+00    3  3  3  3
  2.058252208977e-04    4  1  2  1
  1.579546902502e-03    4  1  2  2
 -3.804893811339e-03    4  1  3  1
 -4.004397841530e-03    4  1  3  2
  4.444614780435e-03    4  1  3  3
  3.739080291119e-02    4  1  4  1
 -4.116504417951e-04    4  2  1  1
 -7.897734512513e-04    4  2  2  1
 -2.010027478435e-03    4  2  3  1
  4.516490674431e-03    4  2  3  2
 -2.656206270531e-03    4  2  3  3
  3.983617657463e-03    4  2  4  1
  2.807704477358e-02    4  2  4  2
  7.609787622681e-03    4  3  1  1
  6.014425319968e-03    4  3  2  1
 -9.032981348865e-03    4  3  2  2
 -2.222307390217e-03    4  3  3  1
  1.328103135266e-03    4  3  3  2
  7.261981074588e-04    4  3  4  1
  8.000882179148e-03    4  3  4  2
  3.827192488100e-02    4  3  4  3
  9.298101969594e-01    4  4  1  1
 -7.967235314930e-03    4  4  2  1
  9.484377132347e-01    4  4  2  2
 -1.452396214918e-03    4  4  3  1
 -1.600176435830e-02    4  4  3  2
  9.280479530198e-01    4  4  3  3
  1.004591802782e+00    4  4  4  4
  7.027962995924e-04    5  1  2  1
  1.871399968000e-03    5  1  2  2
  2.313331580501e-03    5  1  3  1
  1.727163786871e-03    5  1  3  2
  7.157746554902e-03    5  1  3  3
  3.500467635388e-04    5  1  4  1
 -8.226773572837e-03    5  1  4  2
 -1.443682885493e-02    5  1  4  3
 -9.029146522901e-03    5  1  4  4
  3.776366188741e-02    5  1  5  1
 -1.405592599185e-03    5  2  1  1
 -9.356999839998e-04    5  2  2  1
  9.753789315929e-04    5  2  3  1
 -3.034428080633e-03    5  2  3  2
 -5.509225094198e-03    5  2  3  3
 -7.723826697579e-03    5  2  4  1
 -6.120502366163e-04    5  2  4  2
  2.901707102787e-03    5  2  4  3
  6.914817693381e-03    5  2  4  4
 -5.450748537324e-03    5  2  5  1
  2.727015446480e-02    5  2  5  2
 -4.626663161005e-03    5  3  1  1
 -2.702542718465e-03    5  3  2  1
  6.068856161269e-03    5  3  2  2
 -3.578873277451e-03    5  3  3  1
  2.754612547098e-03    5  3  3  2
  1.528471467926e-02    5  3  4  1
  6.520074185430e-03    5  3  4  2
  2.620034730776e-04    5  3  4  3
 -1.442193000264e-03    5  3  4  4
 -7.751682341994e-04    5  3  5  1
 -7.914251631689e-03    5  3  5  2
  3.870595621356e-02    5  3  5  3
 -7.000935270786e-04    5  4  1  1
  1.595060027042e-02    5  4  2  1
  1.224100473232e-03    5  4  2  2
 -8.478858243315e-04    5  4  3  1
 -9.421781288217e-03    5  4  3  2
 -5.240069461556e-04    5  4  3  3
  4.514573261451e-03    5  4  4  1
 -3.457408846691e-03    5  4  4  2
  7.210965001318e-04    5  4  4  3
  3.012080841469e-03    5  4  5  1
 -1.533928356163e-03    5  4  5  2
 -7.115968630921e-04    5  4  5  3
  3.736655545502e-02    5  4  5  4
  9.290644790070e-01    5  5  1  1
  1.090149707465e-02    5  5  2  1
  9.500514938522e-01    5  5  2  2
  1.550336468399e-03    5  5  3  1
  1.582850326338e-02    5  5  3  2
  9.271798903547e-01    5  5  3  3
 -6.024161682936e-03    5  5  4  1
  3.067856712326e-03    5  5  4  2
  1.423193726185e-03    5  5  4  3
  9.298586918718e-01    5  5  4  4
  1.004591802782e+00    5  5  5  5
 -6.204226883850e-05    6  1  1  1
 -1.602349010073e-03    6  1  2  1
  4.211508746614e-05    6  1  2  2
 -3.371430409493e-06    6  1  3  1
 -8.010329979137e-06    6  1  3  2
  7.918426795585e-05    6  1  3  3
 -5.901397090460e-05    6  1  4  1
  1.139757271475e-04    6  1  4  2
 -3.233680927563e-04    6  1  4  3
  6.577734640603e-04    6  1  4  4
 -1.887254823082e-04    6  1  5  1
  1.336923083308e-04    6  1  5  2
  1.688207977166e-04    6  1  5  3
 -1.148202888752e-03    6  1  5  4
 -7.170305506427e-04    6  1  5  5
  7.027853289454e-03    6  1  6  1
 -1.602349010072e-03    6  2  1  1
  4.211508746594e-05    6  2  2  1
  1.614728013172e-03    6  2  2  2
 -8.010329979136e-06    6  2  3  1
 -3.457772865673e-05    6  2  3  2
 -1.350442707408e-03    6  2  3  3
  1.139757271475e-04    6  2  4  1
 -1.215607469163e-05    6  2  4  2
 -6.302952788072e-04    6  2  4  3
  6.203923481456e-04    6  2  4  4
  1.336923083308e-04    6  2  5  1
  4.391992665017e-06    6  2  5  2
  4.129844901117e-04    6  2  5  3
  1.311507688754e-04    6  2  5  4
  7.176713561668e-04    6  2  5  5
  7.027853289454e-03    6  2  6  2
 -3.371430409462e-06    6  3  1  1
 -8.010329979137e-06    6  3  2  1
 -3.457772865670e-05    6  3  2  2
  7.918426795566e-05    6  3  3  1
 -1.350442707409e-03    6  3  3  2
 -2.729376131424e-05    6  3  3  3
 -3.233680927564e-04    6  3  4  1
 -6.302952788073e-04    6  3  4  2
 -3.881457059281e-04    6  3  4  3
  1.000528890552e-03    6  3  4  4
  1.688207977166e-04    6  3  5  1
  4.129844901117e-04    6  3  5  2
 -7.931678406604e-04    6  3  5  3
  5.645904156039e-04    6  3  5  4
 -9.352859701717e-04    6  3  5  5
  7.027853289454e-03    6  3  6  3
 -5.901397090462e-05    6  4  1  1
  1.139757271475e-04    6  4  2  1
 -1.215607469164e-05    6  4  2  2
 -3.233680927564e-04    6  4  3  1
 -6.302952788073e-04    6  4  3  2
 -3.881457059281e-04    6  4  3  3
  6.577734640602e-04    6  4  4  1
  6.203923481449e-04    6  4  4  2
  1.000528890552e-03    6  4  4  3
  8.576438080234e-04    6  4  4  4
 -1.148202888753e-03    6  4  5  1
  1.311507688754e-04    6  4  5  2
  5.645904156040e-04    6  4  5  3
  2.373169994986e-04    6  4  5  4
 -3.983280564991e-04    6  4  5  5
  7.027853289454e-03    6  4  6  4
 -1.887254823082e-04    6  5  1  1
  1.336923083308e-04    6  5  2  1
  4.391992665063e-06    6  5  2  2
  1.688207977166e-04    6  5  3  1
  4.129844901117e-04    6  5  3  2
 -7.931678406603e-04    6  5  3  3
 -1.148202888753e-03    6  5  4  1
  1.311507688754e-04    6  5  4  2
  5.645904156040e-04    6  5  4  3
  2.373169994987e-04    6  5  4  4
 -7.170305506431e-04    6  5  5  1
  7.176713561660e-04    6  5  5  2
 -9.352859701718e-04    6  5  5  3
 -3.983280564991e-04    6  5  5  4
  7.401843308050e-04    6  5  5  5
  7.027853289454e-03    6  5  6  5
  3.623822774481e-01    6  6  1  1
  3.623822774481e-01    6  6  2  2
  3.623822774481e-01    6  6  3  3
  3.623822774481e-01    6  6  4  4
  3.623822774481e-01    6  6  5  5
  2.780293222871e-01    6  6  6  6
 -9.173672850935e+00    1  1  0  0
 -9.173672850935e+00    2  2  0  0
 -9.173672850935e+00    3  3  0  0
 -9.173672850935e+00    4  4  0  0
 -9.173672850935e+00    5  5  0  0
 -3.832957873040e+00    6  6  0  0
   -146.264087989874   0  0  0  0
