#INFO: **** input file is /projects/bamu3429/BENCHMARK/fresh_atoms/MRPT/vtz/atoms/Cu_0/mrpt.py ****
import json
from pyscf import gto,scf,mcscf, fci, lo, ci, cc
from pyscf.scf import ROHF, UHF,ROKS
import numpy as np
import pandas as pd

# THIS IS WERE IT STARTS ====================================

df=json.load(open("../../../trail.json"))

spins={'Sc':1, 'Ti':2, 'V':3, 'Cr':6, 'Mn':5, 'Fe':4, 'Cu':1}

nd={'Sc':(1,0), 'Ti':(2,0), 'V':(3,0), 'Cr':(5,0), 'Mn':(5,0), 'Fe':(5,1), 'Cu':(5,5)}

cas={'Sc':3, 'Ti':4, 'V':5, 'Cr':6, 'Mn':7, 'Fe':8, 'Cu':11}

datacsv={}
for nm in ['atom','charge','method','basis','pseudopotential','hf',
           'totalenergy','totalenergy-stocherr','totalenergy-syserr']:
  datacsv[nm]=[]

basis='vtz'
el='Cu'
charge=0

mol=gto.Mole()
mol.ecp={}
mol.basis={}
mol.ecp[el]=gto.basis.parse_ecp(df[el]['ecp'])
mol.basis[el]=gto.basis.parse(df[el][basis])
mol.charge=charge
if el == 'Cr' or el == 'Cu':
  mol.spin=spins[el]-charge
else:
  mol.spin=spins[el]+charge
mol.build(atom="%s 0. 0. 0."%el,verbose=4)

m=ROHF(mol)
m.level_shift=1000.0
dm=m.from_chk("../../../../HF/atoms/"+el+basis+str(charge)+".chk")
hf=m.kernel(dm)
m.analyze()

from pyscf.shciscf import shci
mc = shci.SHCISCF(m, 6, cas[el]-charge)
#mc.fcisolver.conv_tol = 1e-14
mc.fcisolver.mpiprefix="srun -n20"
mc.fcisolver.num_thrds=12
mc.verbose = 4
cas=mc.kernel()[0]
 
from pyscf.icmpspt import icmpspt
pt=icmpspt.icmpspt(mc,rdmM=500, PTM=1000,\
                          pttype="MRLCC",\
                          third_order=True,\
                          fully_ic=True,\
                          do_dm4=True)

datacsv['atom'].append(el)
datacsv['charge'].append(charge)
datacsv['method'].append('MRPT')
datacsv['basis'].append(basis)
datacsv['pseudopotential'].append('trail')
datacsv['hf'].append(hf)
datacsv['totalenergy'].append(cas+pt)
datacsv['totalenergy-stocherr'].append(0.0)
datacsv['totalenergy-syserr'].append(0.0)
pd.DataFrame(datacsv).to_csv(el+".csv",index=False)

#INFO: ******************** input file end ********************


System: ('Linux', 'bnode0302.rc.int.colorado.edu', '3.10.0-514.41.1.el7.x86_64', '#1 SMP Wed Jan 17 10:26:16 EST 2018', 'x86_64', 'x86_64')  Threads 28
Python 2.7.11 (default, Mar 22 2016, 01:42:54) 
[GCC Intel(R) C++ gcc 4.8 mode]
numpy 1.11.1  scipy 0.17.1
Date: Wed Apr 18 16:31:44 2018
PySCF version 1.4.6
PySCF path  /projects/bamu3429/softwares/pyscf_uptodate/pyscf
GIT ORIG_HEAD f3591ef22170896a4cdc2aadaa6f5da388ffcadb
GIT HEAD      ref: refs/heads/master
GIT master branch  1847583fb1d2472321833d3c71c8b7008e5fabf5

[INPUT] VERBOSE 4
[INPUT] num atoms = 1
[INPUT] num electrons = 19
[INPUT] charge = 0
[INPUT] spin (= nelec alpha-beta = 2S) = 1
[INPUT] symmetry False subgroup None
[INPUT]  1 Cu     0.000000000000   0.000000000000   0.000000000000 AA    0.000000000000   0.000000000000   0.000000000000 Bohr
[INPUT] ---------------- BASIS SET ---------------- 
[INPUT] l, kappa, [nprim/nctr], expnt,             c_1 c_2 ...
[INPUT] Cu
[INPUT] 0    0    [12   /1   ]  56.69692001       0.003858
                                20.1703448        -1.511163
                                16.89311889       5.262467
                                14.81117613       -4.140408
                                6.02025146        0.066973
                                2.45829434        0.59039
                                1.29773244        0.435
                                0.73258474        0.171005
                                0.2960966         0.014654
                                0.13350445        -0.001059
                                0.05975279        0.002343
                                0.0277617         7.2e-05
[INPUT] 0    0    [12   /1   ]  56.69692001       -0.000329
                                20.1703448        0.271255
                                16.89311889       -0.991333
                                14.81117613       0.80309
                                6.02025146        -0.009798
                                2.45829434        -0.162788
                                1.29773244        -0.157463
                                0.73258474        -0.146178
                                0.2960966         0.068557
                                0.13350445        0.45286
                                0.05975279        0.4989
                                0.0277617         0.13834
[INPUT] 0    0    [12   /1   ]  56.69692001       -0.002467
                                20.1703448        1.109338
                                16.89311889       -4.134563
                                14.81117613       3.441198
                                6.02025146        -0.295299
                                2.45829434        -0.948212
                                1.29773244        0.104998
                                0.73258474        0.272398
                                0.2960966         0.781279
                                0.13350445        0.403482
                                0.05975279        -0.504819
                                0.0277617         -0.537516
[INPUT] 0    0    [12   /1   ]  56.69692001       0.007169
                                20.1703448        -2.290439
                                16.89311889       8.576039
                                14.81117613       -7.236243
                                6.02025146        1.069217
                                2.45829434        1.904655
                                1.29773244        -1.704423
                                0.73258474        -0.959586
                                0.2960966         0.398011
                                0.13350445        1.19757
                                0.05975279        -0.332252
                                0.0277617         -0.640028
[INPUT] 0    0    [1    /1   ]  0.0277617            1
[INPUT] 0    0    [1    /1   ]  0.01289834           1
[INPUT] 1    0    [12   /1   ]  84.11621248       0.00021
                                41.67010486       -0.003354
                                20.84027636       0.054507
                                13.1175259        -0.185677
                                7.96834211        0.1136
                                4.08681185        0.286879
                                2.29416473        0.386568
                                1.21038981        0.304256
                                0.60503887        0.104511
                                0.23373223        0.008916
                                0.0905483         -0.000333
                                0.03498335        0.000208
[INPUT] 1    0    [12   /1   ]  84.11621248       4e-06
                                41.67010486       0.000359
                                20.84027636       -0.009409
                                13.1175259        0.03575
                                7.96834211        -0.025333
                                4.08681185        -0.064167
                                2.29416473        -0.086609
                                1.21038981        -0.086359
                                0.60503887        0.027529
                                0.23373223        0.324015
                                0.0905483         0.541358
                                0.03498335        0.260105
[INPUT] 1    0    [12   /1   ]  84.11621248       -0.000267
                                41.67010486       -6.4e-05
                                20.84027636       0.047925
                                13.1175259        -0.277144
                                7.96834211        0.331958
                                4.08681185        0.774366
                                2.29416473        -0.100864
                                1.21038981        -0.807332
                                0.60503887        -0.321021
                                0.23373223        0.668842
                                0.0905483         0.367628
                                0.03498335        -0.000935
[INPUT] 1    0    [12   /1   ]  84.11621248       5.7e-05
                                41.67010486       -0.001547
                                20.84027636       0.089243
                                13.1175259        -0.63532
                                7.96834211        1.278388
                                4.08681185        0.622329
                                2.29416473        -1.509876
                                1.21038981        -0.580496
                                0.60503887        1.497693
                                0.23373223        -0.085087
                                0.0905483         -0.662473
                                0.03498335        0.018623
[INPUT] 1    0    [1    /1   ]  0.03498335           1
[INPUT] 1    0    [1    /1   ]  0.01351582           1
[INPUT] 2    0    [10   /1   ]  85.06963135       0.000306
                                37.22826442       -0.00619
                                15.61164981       0.135912
                                9.50636668        0.057336
                                5.30208049        0.240495
                                2.49612499        0.317037
                                1.13949453        0.29791
                                0.51100337        0.208077
                                0.230497          0.090388
                                0.11275594        0.026692
[INPUT] 2    0    [10   /1   ]  85.06963135       -6.7e-05
                                37.22826442       0.005894
                                15.61164981       -0.160149
                                9.50636668        -0.06449
                                5.30208049        -0.378253
                                2.49612499        -0.223915
                                1.13949453        0.192556
                                0.51100337        0.40631
                                0.230497          0.288029
                                0.11275594        0.137167
[INPUT] 2    0    [10   /1   ]  85.06963135       0.000676
                                37.22826442       0.002685
                                15.61164981       -0.164508
                                9.50636668        -0.124255
                                5.30208049        -0.491432
                                2.49612499        0.308336
                                1.13949453        0.656459
                                0.51100337        -0.049831
                                0.230497          -0.426374
                                0.11275594        -0.340335
[INPUT] 2    0    [1    /1   ]  0.11275594           1
[INPUT] 2    0    [1    /1   ]  0.05515864           1
[INPUT] 3    0    [1    /1   ]  5.302569             1
[INPUT] 3    0    [1    /1   ]  1.403579             1
[INPUT] 3    0    [1    /1   ]  0.37152444           1
[INPUT] 4    0    [1    /1   ]  4.659861             1
[INPUT] 4    0    [1    /1   ]  1.23345551           1
nuclear repulsion = 0
number of shells = 22
number of NR pGTOs = 399
number of NR cGTOs = 88
basis = {'Cu': [[0, [56.69692001, 0.003858], [20.1703448, -1.511163], [16.89311889, 5.262467], [14.81117613, -4.140408], [6.02025146, 0.066973], [2.45829434, 0.59039], [1.29773244, 0.435], [0.73258474, 0.171005], [0.2960966, 0.014654], [0.13350445, -0.001059], [0.05975279, 0.002343], [0.0277617, 7.2e-05]], [0, [56.69692001, -0.000329], [20.1703448, 0.271255], [16.89311889, -0.991333], [14.81117613, 0.80309], [6.02025146, -0.009798], [2.45829434, -0.162788], [1.29773244, -0.157463], [0.73258474, -0.146178], [0.2960966, 0.068557], [0.13350445, 0.45286], [0.05975279, 0.4989], [0.0277617, 0.13834]], [0, [56.69692001, -0.002467], [20.1703448, 1.109338], [16.89311889, -4.134563], [14.81117613, 3.441198], [6.02025146, -0.295299], [2.45829434, -0.948212], [1.29773244, 0.104998], [0.73258474, 0.272398], [0.2960966, 0.781279], [0.13350445, 0.403482], [0.05975279, -0.504819], [0.0277617, -0.537516]], [0, [56.69692001, 0.007169], [20.1703448, -2.290439], [16.89311889, 8.576039], [14.81117613, -7.236243], [6.02025146, 1.069217], [2.45829434, 1.904655], [1.29773244, -1.704423], [0.73258474, -0.959586], [0.2960966, 0.398011], [0.13350445, 1.19757], [0.05975279, -0.332252], [0.0277617, -0.640028]], [0, [0.0277617, 1.0]], [0, [0.01289834, 1.0]], [1, [84.11621248, 0.00021], [41.67010486, -0.003354], [20.84027636, 0.054507], [13.1175259, -0.185677], [7.96834211, 0.1136], [4.08681185, 0.286879], [2.29416473, 0.386568], [1.21038981, 0.304256], [0.60503887, 0.104511], [0.23373223, 0.008916], [0.0905483, -0.000333], [0.03498335, 0.000208]], [1, [84.11621248, 4e-06], [41.67010486, 0.000359], [20.84027636, -0.009409], [13.1175259, 0.03575], [7.96834211, -0.025333], [4.08681185, -0.064167], [2.29416473, -0.086609], [1.21038981, -0.086359], [0.60503887, 0.027529], [0.23373223, 0.324015], [0.0905483, 0.541358], [0.03498335, 0.260105]], [1, [84.11621248, -0.000267], [41.67010486, -6.4e-05], [20.84027636, 0.047925], [13.1175259, -0.277144], [7.96834211, 0.331958], [4.08681185, 0.774366], [2.29416473, -0.100864], [1.21038981, -0.807332], [0.60503887, -0.321021], [0.23373223, 0.668842], [0.0905483, 0.367628], [0.03498335, -0.000935]], [1, [84.11621248, 5.7e-05], [41.67010486, -0.001547], [20.84027636, 0.089243], [13.1175259, -0.63532], [7.96834211, 1.278388], [4.08681185, 0.622329], [2.29416473, -1.509876], [1.21038981, -0.580496], [0.60503887, 1.497693], [0.23373223, -0.085087], [0.0905483, -0.662473], [0.03498335, 0.018623]], [1, [0.03498335, 1.0]], [1, [0.01351582, 1.0]], [2, [85.06963135, 0.000306], [37.22826442, -0.00619], [15.61164981, 0.135912], [9.50636668, 0.057336], [5.30208049, 0.240495], [2.49612499, 0.317037], [1.13949453, 0.29791], [0.51100337, 0.208077], [0.230497, 0.090388], [0.11275594, 0.026692]], [2, [85.06963135, -6.7e-05], [37.22826442, 0.005894], [15.61164981, -0.160149], [9.50636668, -0.06449], [5.30208049, -0.378253], [2.49612499, -0.223915], [1.13949453, 0.192556], [0.51100337, 0.40631], [0.230497, 0.288029], [0.11275594, 0.137167]], [2, [85.06963135, 0.000676], [37.22826442, 0.002685], [15.61164981, -0.164508], [9.50636668, -0.124255], [5.30208049, -0.491432], [2.49612499, 0.308336], [1.13949453, 0.656459], [0.51100337, -0.049831], [0.230497, -0.426374], [0.11275594, -0.340335]], [2, [0.11275594, 1.0]], [2, [0.05515864, 1.0]], [3, [5.302569, 1.0]], [3, [1.403579, 1.0]], [3, [0.37152444, 1.0]], [4, [4.659861, 1.0]], [4, [1.23345551, 1.0]]]}
ecp = {'Cu': [10, [[-1, [[], [[19.87662576, 19.0]], [[18.71397328, 13322.8315411], [8.24597653, -143.81933419], [17.99726398, -6835.89401414], [19.50653533, -6413.73731394]], [[9.35936389, 377.6558895]]]], [0, [[], [], [[12.04327682, 217421.85846016], [11.98352277, -215987.47192743], [9.67744501, 1647.53099822], [17.5806873, -5124.79596488], [17.5092588, -963.5691239], [19.80724162, 3071.81011765]], []]], [1, [[], [], [[15.48559732, 189560.54470794], [15.42430413, -181115.65838446], [17.81980355, -1937.67548293], [17.69074392, -2335.92086442], [17.98867265, -8634.52846732], [19.82460345, 4504.58524733]], []]], [2, [[], [], [[10.91448054, -5224.34215851], [14.69969344, -3653.65459704], [11.52370333, 8159.25189768], [19.81153965, -2763.94279097], [18.0197982, 6020.80732635], [14.46480052, -2560.14492979]], []]]]]}
CPU time:         3.53


******** <class 'pyscf.scf.rohf.ROHF'> flags ********
method = ROHF
initial guess = minao
damping factor = 0
level shift factor = 1000.0
DIIS = <class 'pyscf.scf.diis.CDIIS'>
DIIS start cycle = 1
DIIS space = 8
SCF tol = 1e-09
SCF gradient tol = None
max. SCF cycles = 50
direct_scf = True
direct_scf_tol = 1e-13
chkfile to save SCF result = /rc_scratch/bamu3429/tmpPrn1l3
max_memory 4000 MB (current use 104 MB)
num. doubly occ = 9  num. singly occ = 1
Set gradient conv threshold to 3.16228e-05
init E= -196.566117939569
  HOMO = 499.894740316264  LUMO = 1000.0264936665
cycle= 1 E= -196.566117939568  delta_E= 1.14e-13  |g|= 1.89e-06  |ddm|= 1.03e-08
  HOMO = -0.105259683664822  LUMO = 0.0264936665014882
Extra cycle  E= -196.56611793957  delta_E= -1.05e-12  |g|= 1.37e-06  |ddm|= 6.08e-06
converged SCF energy = -196.56611793957
**** MO energy ****
                Roothaan           | alpha              | beta
MO #1   energy= -5.23095860536633  | -5.23492038797841  | -5.22699682336355  occ= 2
MO #2   energy= -3.49837648650039  | -3.50043882536128  | -3.49631414763949  occ= 2
MO #3   energy= -3.49837648650038  | -3.50043882536127  | -3.49631414763948  occ= 2
MO #4   energy= -3.49837648650038  | -3.50043882536128  | -3.49631414763949  occ= 2
MO #5   energy= -0.479010314608379 | -0.48252424077567  | -0.475496388441098 occ= 2
MO #6   energy= -0.479010314608369 | -0.482524240775656 | -0.475496388441085 occ= 2
MO #7   energy= -0.47901031460832  | -0.482524240775602 | -0.475496388441031 occ= 2
MO #8   energy= -0.479010314608318 | -0.4825242407756   | -0.475496388441029 occ= 2
MO #9   energy= -0.479010314608313 | -0.482524240775602 | -0.47549638844103  occ= 2
MO #10  energy= -0.105259683664822 | -0.24427442398509  | 0.0337549780880808 occ= 1
MO #11  energy= 0.0264936665014882 | 0.0235234168641498 | 0.0294639161388371 occ= 0
MO #12  energy= 0.0264936665014933 | 0.023523416864149  | 0.029463916138837  occ= 0
MO #13  energy= 0.0264936665014938 | 0.0235234168641501 | 0.0294639161388375 occ= 0
MO #14  energy= 0.031122497340892  | 0.0290013028394975 | 0.033243780737624  occ= 0
MO #15  energy= 0.0904426036150174 | 0.075696347020556  | 0.105188860209487  occ= 0
MO #16  energy= 0.0904426036150199 | 0.0756963470205567 | 0.105188860209486  occ= 0
MO #17  energy= 0.0904426036150221 | 0.0756963470205557 | 0.105188860209487  occ= 0
MO #18  energy= 0.162519169611194  | 0.159148470431964  | 0.165889868790423  occ= 0
MO #19  energy= 0.162519169611199  | 0.159148470431964  | 0.165889868790423  occ= 0
MO #20  energy= 0.162519169611207  | 0.159148470431984  | 0.165889868790445  occ= 0
MO #21  energy= 0.162519169611216  | 0.159148470431983  | 0.165889868790444  occ= 0
MO #22  energy= 0.162519169611218  | 0.159148470431981  | 0.165889868790441  occ= 0
MO #23  energy= 0.238907997998416  | 0.22606735989319   | 0.251748638838601  occ= 0
MO #24  energy= 0.34343124976349   | 0.323698710072211  | 0.363163789454773  occ= 0
MO #25  energy= 0.343431249763491  | 0.323698710072209  | 0.363163789454769  occ= 0
MO #26  energy= 0.343431249763497  | 0.323698710072215  | 0.363163789454777  occ= 0
MO #27  energy= 0.504020308112629  | 0.494832172736344  | 0.51320844348891   occ= 0
MO #28  energy= 0.504020308112637  | 0.494832172736352  | 0.513208443488919  occ= 0
MO #29  energy= 0.504020308112704  | 0.494832172736427  | 0.513208443488993  occ= 0
MO #30  energy= 0.504020308112707  | 0.494832172736419  | 0.513208443488987  occ= 0
MO #31  energy= 0.504020308112709  | 0.494832172736425  | 0.513208443488994  occ= 0
MO #32  energy= 1.07877515225363   | 1.06698585441287   | 1.09056443715442   occ= 0
MO #33  energy= 1.40896552882897   | 1.39997312197586   | 1.41795793568208   occ= 0
MO #34  energy= 1.40896552882897   | 1.39997312197586   | 1.41795793568209   occ= 0
MO #35  energy= 1.40896552882897   | 1.39997312197586   | 1.41795793568209   occ= 0
MO #36  energy= 1.40896552882897   | 1.39997312197586   | 1.41795793568209   occ= 0
MO #37  energy= 1.40896552882897   | 1.39997312197586   | 1.41795793568209   occ= 0
MO #38  energy= 1.40896552882898   | 1.39997312197586   | 1.41795793568209   occ= 0
MO #39  energy= 1.40896552882898   | 1.39997312197587   | 1.41795793568209   occ= 0
MO #40  energy= 1.857251526966     | 1.84995109657356   | 1.86455195735848   occ= 0
MO #41  energy= 1.85725152696603   | 1.84995109657358   | 1.8645519573585    occ= 0
MO #42  energy= 1.85725152696616   | 1.84995109657369   | 1.86455195735862   occ= 0
MO #43  energy= 1.85725152696616   | 1.84995109657368   | 1.86455195735861   occ= 0
MO #44  energy= 1.85725152696617   | 1.8499510965737    | 1.86455195735863   occ= 0
MO #45  energy= 2.72899833511936   | 2.72240252619434   | 2.73559414404438   occ= 0
MO #46  energy= 2.72899833511937   | 2.72240252619434   | 2.73559414404438   occ= 0
MO #47  energy= 2.72899833511937   | 2.72240252619435   | 2.73559414404439   occ= 0
MO #48  energy= 4.81879639857657   | 4.81722795752415   | 4.82036483962902   occ= 0
MO #49  energy= 4.81879639857658   | 4.81722795752414   | 4.82036483962902   occ= 0
MO #50  energy= 4.81879639857658   | 4.81722795752414   | 4.82036483962901   occ= 0
MO #51  energy= 4.81879639857658   | 4.81722795752415   | 4.82036483962902   occ= 0
MO #52  energy= 4.81879639857658   | 4.81722795752416   | 4.82036483962903   occ= 0
MO #53  energy= 4.81879639857658   | 4.81722795752415   | 4.82036483962902   occ= 0
MO #54  energy= 4.8187963985766    | 4.81722795752416   | 4.82036483962903   occ= 0
MO #55  energy= 5.7641732651314    | 5.76154174066807   | 5.76680478959473   occ= 0
MO #56  energy= 5.76417326513141   | 5.76154174066809   | 5.76680478959476   occ= 0
MO #57  energy= 5.76417326513141   | 5.76154174066809   | 5.76680478959475   occ= 0
MO #58  energy= 5.76417326513141   | 5.76154174066808   | 5.76680478959475   occ= 0
MO #59  energy= 5.76417326513144   | 5.76154174066811   | 5.76680478959478   occ= 0
MO #60  energy= 5.76417326513144   | 5.7615417406681    | 5.76680478959477   occ= 0
MO #61  energy= 5.76417326513144   | 5.76154174066812   | 5.76680478959478   occ= 0
MO #62  energy= 5.76417326513144   | 5.7615417406681    | 5.76680478959476   occ= 0
MO #63  energy= 5.76417326513145   | 5.76154174066811   | 5.76680478959478   occ= 0
MO #64  energy= 6.25808498742797   | 6.25331053195519   | 6.26285944338709   occ= 0
MO #65  energy= 7.00100595935802   | 6.99931630994046   | 7.00269560877558   occ= 0
MO #66  energy= 7.00100595935802   | 6.99931630994048   | 7.0026956087756    occ= 0
MO #67  energy= 7.0010059593581    | 6.99931630994054   | 7.00269560877566   occ= 0
MO #68  energy= 7.00100595935811   | 6.99931630994055   | 7.00269560877567   occ= 0
MO #69  energy= 7.00100595935812   | 6.99931630994055   | 7.00269560877567   occ= 0
MO #70  energy= 10.6702467770639   | 10.667834677776    | 10.6726588763517   occ= 0
MO #71  energy= 10.6702467770639   | 10.667834677776    | 10.6726588763518   occ= 0
MO #72  energy= 10.6702467770639   | 10.667834677776    | 10.6726588763517   occ= 0
MO #73  energy= 15.3451469817556   | 15.3440233113208   | 15.3462706521905   occ= 0
MO #74  energy= 15.3451469817556   | 15.3440233113208   | 15.3462706521905   occ= 0
MO #75  energy= 15.3451469817556   | 15.3440233113207   | 15.3462706521905   occ= 0
MO #76  energy= 15.3451469817556   | 15.3440233113208   | 15.3462706521905   occ= 0
MO #77  energy= 15.3451469817557   | 15.3440233113208   | 15.3462706521905   occ= 0
MO #78  energy= 15.3451469817557   | 15.3440233113209   | 15.3462706521906   occ= 0
MO #79  energy= 15.3451469817558   | 15.3440233113209   | 15.3462706521907   occ= 0
MO #80  energy= 20.3354917917086   | 20.3349950347262   | 20.335988548691    occ= 0
MO #81  energy= 20.3354917917086   | 20.3349950347262   | 20.3359885486911   occ= 0
MO #82  energy= 20.3354917917087   | 20.3349950347262   | 20.3359885486911   occ= 0
MO #83  energy= 20.3354917917087   | 20.3349950347262   | 20.3359885486911   occ= 0
MO #84  energy= 20.3354917917087   | 20.3349950347263   | 20.3359885486911   occ= 0
MO #85  energy= 20.3354917917087   | 20.3349950347263   | 20.3359885486912   occ= 0
MO #86  energy= 20.3354917917087   | 20.3349950347263   | 20.3359885486911   occ= 0
MO #87  energy= 20.3354917917087   | 20.3349950347263   | 20.3359885486911   occ= 0
MO #88  energy= 20.3354917917088   | 20.3349950347264   | 20.3359885486912   occ= 0
 ** Mulliken pop on meta-lowdin orthogonal AOs  **
 ** Mulliken pop  **
pop of  0Cu 3s        1.99998
pop of  0Cu 4s        0.99254
pop of  0Cu 5s        0.00491
pop of  0Cu 6s        0.00061
pop of  0Cu 7s        0.00114
pop of  0Cu 8s        0.00082
pop of  0Cu 3px       1.99995
pop of  0Cu 3py       1.99995
pop of  0Cu 3pz       1.99995
pop of  0Cu 4px       0.00004
pop of  0Cu 4py       0.00004
pop of  0Cu 4pz       0.00004
pop of  0Cu 5px       0.00001
pop of  0Cu 5py       0.00001
pop of  0Cu 5pz       0.00001
pop of  0Cu 6px       0.00000
pop of  0Cu 6py       0.00000
pop of  0Cu 6pz       0.00000
pop of  0Cu 7px       0.00000
pop of  0Cu 7py       0.00000
pop of  0Cu 7pz       0.00000
pop of  0Cu 8px       0.00000
pop of  0Cu 8py       0.00000
pop of  0Cu 8pz       0.00000
pop of  0Cu 3dxy      1.99772
pop of  0Cu 3dyz      1.99772
pop of  0Cu 3dz^2     1.99772
pop of  0Cu 3dxz      1.99772
pop of  0Cu 3dx2-y2    1.99772
pop of  0Cu 4dxy      0.00134
pop of  0Cu 4dyz      0.00134
pop of  0Cu 4dz^2     0.00134
pop of  0Cu 4dxz      0.00134
pop of  0Cu 4dx2-y2    0.00134
pop of  0Cu 5dxy      0.00017
pop of  0Cu 5dyz      0.00017
pop of  0Cu 5dz^2     0.00017
pop of  0Cu 5dxz      0.00017
pop of  0Cu 5dx2-y2    0.00017
pop of  0Cu 6dxy      0.00064
pop of  0Cu 6dyz      0.00064
pop of  0Cu 6dz^2     0.00064
pop of  0Cu 6dxz      0.00064
pop of  0Cu 6dx2-y2    0.00064
pop of  0Cu 7dxy      0.00013
pop of  0Cu 7dyz      0.00013
pop of  0Cu 7dz^2     0.00013
pop of  0Cu 7dxz      0.00013
pop of  0Cu 7dx2-y2    0.00013
pop of  0Cu 4fy^3     0.00000
pop of  0Cu 4fxyz     0.00000
pop of  0Cu 4fyz^2    0.00000
pop of  0Cu 4fz^3     0.00000
pop of  0Cu 4fxz^2    0.00000
pop of  0Cu 4fzx^2    0.00000
pop of  0Cu 4fx^3     0.00000
pop of  0Cu 5fy^3     0.00000
pop of  0Cu 5fxyz     0.00000
pop of  0Cu 5fyz^2    0.00000
pop of  0Cu 5fz^3     0.00000
pop of  0Cu 5fxz^2    0.00000
pop of  0Cu 5fzx^2    0.00000
pop of  0Cu 5fx^3     0.00000
pop of  0Cu 6fy^3     0.00000
pop of  0Cu 6fxyz     0.00000
pop of  0Cu 6fyz^2    0.00000
pop of  0Cu 6fz^3     0.00000
pop of  0Cu 6fxz^2    0.00000
pop of  0Cu 6fzx^2    0.00000
pop of  0Cu 6fx^3     0.00000
pop of  0Cu 5g-4      0.00000
pop of  0Cu 5g-3      0.00000
pop of  0Cu 5g-2      0.00000
pop of  0Cu 5g-1      0.00000
pop of  0Cu 5g 0      0.00000
pop of  0Cu 5g 1      0.00000
pop of  0Cu 5g 2      0.00000
pop of  0Cu 5g 3      0.00000
pop of  0Cu 5g 4      0.00000
pop of  0Cu 6g-4      0.00000
pop of  0Cu 6g-3      0.00000
pop of  0Cu 6g-2      0.00000
pop of  0Cu 6g-1      0.00000
pop of  0Cu 6g 0      0.00000
pop of  0Cu 6g 1      0.00000
pop of  0Cu 6g 2      0.00000
pop of  0Cu 6g 3      0.00000
pop of  0Cu 6g 4      0.00000
 ** Mulliken atomic charges  **
charge of  0Cu =      0.00000

******** <class 'pyscf.mcscf.mc1step.CASSCF'> flags ********
CAS (6e+5e, 6o), ncore = 4, nvir = 78
max_cycle_macro = 50
max_cycle_micro = 4
conv_tol = 1e-07
conv_tol_grad = None
orbital rotation max_stepsize = 0.02
augmented hessian ah_max_cycle = 30
augmented hessian ah_conv_tol = 1e-12
augmented hessian ah_linear dependence = 1e-14
augmented hessian ah_level shift = 0
augmented hessian ah_start_tol = 2.5
augmented hessian ah_start_cycle = 3
augmented hessian ah_grad_trust_region = 3
kf_trust_region = 3
kf_interval = 4
ci_response_space = 4
ci_grad_trust_region = 3
with_dep4 0
natorb = False
canonicalization = True
sorting_mo_energy = False
chkfile = ./scratch/140624/tmp3tX1eQ
max_memory 4000 MB (current use 196 MB)
internal_rotation = False

******** SHCI flags ********
executable             = /home/bamu3429/softwares/dice/Dice
mpiprefix              = srun -n20
scratchDirectory       = ./scratch/140624
integralFile           = ./FCIDUMP
configFile             = ./input.dat
outputFile             = ./output.dat
maxIter                = 6
sweep_iter             = []
sweep_epsilon          = []
nPTiter                = 0
Stochastic             = True
fullrestart            = False
restart                = False
num_thrds              = 12
memory                 = None

CASCI E = -196.566117939567  S^2 = 0.7500000
Set conv_tol_grad to 0.000316228
macro iter 1 (1 JK  1 micro), CASSCF E = -196.566117939567  dE = 0  S^2 = 0.7500000
               |grad[o]|=1.37e-06  |grad[c]|= None  |ddm|=    0
1-step CASSCF converged in 1 macro (1 JK 1 micro) steps
CASSCF canonicalization
CASSCF energy = -196.566117939567


--------------------------------------------------
                 ICMPSPT CALCULATION              
--------------------------------------------------

Perturbation type: MRLCC
With fully internally contracted scheme
With third order correction

Preparing necessary RDMs
......production of RDMs took       2.76 sec
Reading binary 4RDM from DICE
......reading the RDM took          1.05 sec

(GOOD) Trace 4RDM:   7920.0 =   11*   10*    9*    8
(GOOD) Trace 3RDM:    990.0 =   11*   10*    9
(GOOD) Trace 2RDM:    110.0 =   11*   10
(GOOD) Trace 1RDM:     11.0 =   11

Producing the integrals
......production of INT took      86.68 sec

Energy_core = -146.26408799
Energy      = -196.56611794

WARNING: Have to use natural orbitals from CAASCF
         offdiagonal elements:    1.80737977

Basic ingredients written to int/
......savings of INGREDIENTS took      17.52 sec

Second-order:
perturber CCVV --        -0.106569361
perturber CCAV --        -0.000738337
perturber ACVV --        -0.323023214
