 &FCI NORB=6 ,NELEC=5 ,MS2=3,
  ORBSYM=1,1,1,1,1,1,
  ISYM=1,
 &END
  2.540452021229e-01    1  1  1  1
  1.012135902937e-08    2  1  1  1
  8.325987537691e-03    2  1  2  1
  3.221831785307e-01    2  2  1  1
  2.799595971668e-08    2  2  2  1
  7.333660895260e-01    2  2  2  2
 -1.209618952231e-11    3  1  1  1
 -2.030584714657e-11    3  1  2  1
 -3.773982099896e-10    3  1  2  2
  7.715191051381e-03    3  1  3  1
 -3.541354443884e-11    3  2  1  1
 -1.770973051446e-11    3  2  2  1
  5.292045500009e-11    3  2  2  2
 -1.975321886838e-03    3  2  3  1
  2.854912281210e-02    3  2  3  2
  3.215084763348e-01    3  3  1  1
 -2.627705676698e-03    3  3  2  1
  6.777122559052e-01    3  3  2  2
 -4.258316405354e-10    3  3  3  1
  5.632600386597e-11    3  3  3  2
  7.362611394299e-01    3  3  3  3
  1.088521016226e-12    4  1  2  1
 -2.207284452183e-11    4  1  2  2
 -2.380876856511e-10    4  1  3  2
 -2.325964393745e-11    4  1  3  3
  7.715192339186e-03    4  1  4  1
  1.950637412414e-12    4  2  1  1
 -3.097724623074e-12    4  2  2  2
 -2.380892809239e-10    4  2  3  1
 -6.072173508090e-12    4  2  3  3
  1.975329786428e-03    4  2  4  1
  2.854916433705e-02    4  2  4  2
 -5.400013128788e-10    4  3  2  1
 -1.503238802122e-12    4  3  3  1
  1.577688508069e-12    4  3  3  2
 -3.302181868867e-11    4  3  4  1
 -2.590111027653e-11    4  3  4  2
  2.862157618240e-02    4  3  4  3
  3.215084837640e-01    4  4  1  1
  2.627781024515e-03    4  4  2  1
  6.777121728682e-01    4  4  2  2
 -3.909770569583e-10    4  4  3  1
  1.017657322384e-10    4  4  3  2
  6.790180151645e-01    4  4  3  3
 -2.778215366910e-11    4  4  4  1
 -3.304931489899e-12    4  4  4  2
  7.362611956287e-01    4  4  4  4
  5.915931584318e-02    5  1  5  1
 -1.645951542961e-02    5  2  5  1
  1.012904324597e-02    5  2  5  2
  2.682885554773e-09    5  3  5  1
 -7.040705817195e-10    5  3  5  2
  9.923241417207e-03    5  3  5  3
  4.152728092750e-12    5  4  5  1
 -2.021153109199e-12    5  4  5  2
  5.296695864424e-10    5  4  5  3
  1.729366107826e-03    5  4  5  4
  2.501167080550e-01    5  5  1  1
 -8.914251250492e-03    5  5  2  1
  3.135537220804e-01    5  5  2  2
  1.365417484023e-09    5  5  3  1
 -1.071836351231e-09    5  5  3  2
  3.136920049291e-01    5  5  3  3
 -1.510179704117e-12    5  5  4  1
 -3.623937254456e-12    5  5  4  2
  8.181988769288e-10    5  5  4  3
  3.009122896993e-01    5  5  4  4
  2.666840290630e-01    5  5  5  5
 -4.116013881661e-09    6  1  5  2
  7.822079032918e-11    6  1  5  3
  1.303709098027e-09    6  1  5  4
  5.915933977320e-02    6  1  6  1
 -4.116015772127e-09    6  2  5  1
 -7.763432615189e-12    6  2  5  3
  5.384723961683e-10    6  2  5  4
  1.645947926173e-02    6  2  6  1
  1.012900442494e-02    6  2  6  2
  7.964728778081e-11    6  3  5  1
 -3.244456002048e-11    6  3  5  2
 -5.277516704139e-10    6  3  5  3
  1.729077500358e-03    6  3  5  4
 -1.676802521781e-12    6  3  6  1
 -2.756432428662e-12    6  3  6  2
  1.729366293613e-03    6  3  6  3
  1.280997130094e-09    6  4  5  1
  1.548343136218e-10    6  4  5  2
  6.434298467806e-03    6  4  5  3
  5.277515632152e-10    6  4  5  4
  1.596796775223e-10    6  4  6  1
  4.300073524568e-11    6  4  6  2
 -5.296695975678e-10    6  4  6  3
  9.923239339469e-03    6  4  6  4
 -1.762032620936e-09    6  5  2  1
  4.221786562770e-11    6  5  3  1
 -3.122688419006e-11    6  5  3  2
 -8.132733273010e-10    6  5  3  3
  6.911291103528e-10    6  5  4  1
  5.385045730176e-10    6  5  4  2
  6.349516455950e-03    6  5  4  3
  8.132724529758e-10    6  5  4  4
  1.584558050440e-02    6  5  6  5
  2.501167179251e-01    6  6  1  1
  8.914250877971e-03    6  6  2  1
  3.135536625107e-01    6  6  2  2
 -6.243602303028e-11    6  6  3  1
  4.556091369851e-12    6  6  3  2
  3.009122822752e-01    6  6  3  3
  8.108200661704e-11    6  6  4  1
  6.550375099918e-11    6  6  4  2
 -8.181987325834e-10    6  6  4  3
  3.136920026341e-01    6  6  4  4
  2.347299429835e-01    6  6  5  5
  2.666840246048e-01    6  6  6  6
 -1.438981066603e+00    1  1  0  0
 -1.029368694870e-07    2  1  0  0
 -2.436905173562e+00    2  2  0  0
  8.783855698765e-10    3  1  0  0
 -1.041347480082e-10    3  2  0  0
 -2.439621737191e+00    3  3  0  0
  5.386277476665e-11    4  1  0  0
  6.139992652244e-12    4  2  0  0
 -2.439621783833e+00    4  4  0  0
 -1.267723384610e+00    5  5  0  0
 -1.267723368548e+00    6  6  0  0
    -64.608390706972   0  0  0  0
