 &FCI NORB=6 ,NELEC=5 ,MS2=5,
  ORBSYM=1,1,1,1,1,1,
  ISYM=1,
 &END
  7.448874621525e-01    1  1  1  1
 -8.121332178409e-09    2  1  1  1
  2.031227258552e-02    2  1  2  1
  7.042629651769e-01    2  2  1  1
 -5.331829790813e-10    2  2  2  1
  7.448876683806e-01    2  2  2  2
 -2.432910996448e-09    3  1  1  1
 -4.179965536845e-03    3  1  2  1
 -6.835167823428e-03    3  1  2  2
  2.775315245260e-02    3  1  3  1
  8.360007067386e-03    3  2  1  1
  3.417557439667e-03    3  2  2  1
  2.912101322249e-08    3  2  2  2
 -5.573463760276e-04    3  2  3  1
  2.419351921404e-02    3  2  3  2
  6.893810715368e-01    3  3  1  1
  1.114728966541e-03    3  3  2  1
  6.965004956931e-01    3  3  2  2
 -1.225449921540e-08    3  3  3  1
  1.981306290370e-08    3  3  3  2
  7.448874732549e-01    3  3  3  3
 -2.793386596533e-08    4  1  1  1
  3.498700956000e-03    4  1  2  1
 -9.142984182597e-03    4  1  2  2
  2.886295413206e-04    4  1  3  1
  6.199496762985e-03    4  1  3  2
  2.750090876006e-03    4  1  3  3
  2.642304293896e-02    4  1  4  1
 -6.997469211078e-03    4  2  1  1
  4.571440729517e-03    4  2  2  1
  5.773583327102e-09    4  2  2  2
 -1.058379698762e-02    4  2  3  1
 -2.535772536664e-03    4  2  3  2
 -1.223362785786e-03    4  2  3  3
  1.101048847838e-03    4  2  4  1
  2.954552040411e-02    4  2  4  2
 -5.772061462091e-04    4  3  1  1
  4.384326849487e-03    4  3  2  1
  5.071474377668e-03    4  3  2  2
 -1.375101361210e-03    4  3  3  1
  6.116907076553e-04    4  3  3  2
 -5.825602174015e-08    4  3  3  3
 -3.565117611869e-03    4  3  4  1
  2.114325079348e-03    4  3  4  2
  2.937930725567e-02    4  3  4  3
  6.920415998665e-01    4  4  1  1
 -2.202229715674e-03    4  4  2  1
  6.857965972751e-01    4  4  2  2
  7.130255682187e-03    4  4  3  1
 -4.228550219879e-03    4  4  3  2
  6.861290090956e-01    4  4  3  3
 -3.163352410706e-09    4  4  4  1
 -9.347826980685e-08    4  4  4  2
 -1.402825537913e-07    4  4  4  3
  7.448878009030e-01    4  4  4  4
  3.901758191323e-08    5  1  1  1
  3.973483141026e-03    5  1  2  1
 -2.515139842591e-03    5  1  2  2
  2.860241841277e-03    5  1  3  1
  1.841487105188e-03    5  1  3  2
 -5.376055835414e-03    5  1  3  3
  1.358413481831e-04    5  1  4  1
  6.848128802262e-04    5  1  4  2
  1.165915340210e-02    5  1  4  3
  7.891026070618e-03    5  1  4  4
  3.058284405158e-02    5  1  5  1
 -7.947027927644e-03    5  2  1  1
  1.257562471463e-03    5  2  2  1
 -3.756415132748e-08    5  2  2  2
  1.931541522396e-03    5  2  3  1
 -1.065030690772e-03    5  2  3  2
  1.519162717483e-02    5  2  3  3
  6.590514934403e-04    5  2  4  1
 -1.916048882273e-03    5  2  4  2
  4.196515957546e-03    5  2  4  3
 -7.244701245730e-03    5  2  4  4
 -5.437539889538e-04    5  2  5  1
  3.101997314217e-02    5  2  5  2
 -5.720497601831e-03    5  3  1  1
 -3.772947745250e-03    5  3  2  1
  2.130021334469e-03    5  3  2  2
  2.687947541086e-03    5  3  3  1
 -7.595772664336e-03    5  3  3  2
  4.066244993118e-09    5  3  3  3
 -7.710122962335e-03    5  3  4  1
 -8.823236307320e-04    5  3  4  2
  1.780199558904e-03    5  3  4  3
  3.590361401943e-03    5  3  4  4
  1.475437065942e-04    5  3  5  1
  2.065706045414e-03    5  3  5  2
  2.374516111373e-02    5  3  5  3
 -2.715824267399e-04    5  4  1  1
 -1.343922724806e-03    5  4  2  1
  3.832111069959e-03    5  4  2  2
 -3.948969798720e-03    5  4  3  1
 -3.314140777924e-03    5  4  3  2
 -3.560424663138e-03    5  4  3  3
 -3.945542968576e-03    5  4  4  1
  3.622278093274e-03    5  4  4  2
 -1.795263245080e-03    5  4  4  3
  4.238473611122e-08    5  4  4  4
 -3.196415054300e-03    5  4  5  1
 -4.110435834910e-03    5  4  5  2
  2.247153707294e-03    5  4  5  3
  1.972339522569e-02    5  4  5  4
  6.837222444143e-01    5  5  1  1
  1.087395525585e-03    5  5  2  1
  6.828481442300e-01    5  5  2  2
 -2.951770681199e-04    5  5  3  1
 -4.131309769889e-03    5  5  3  2
  6.973972125276e-01    5  5  3  3
  6.392685007612e-03    5  5  4  1
  8.220694271296e-03    5  5  4  2
 -4.494449276032e-03    5  5  4  3
  7.054410723703e-01    5  5  4  4
 -1.049128186808e-07    5  5  5  1
 -1.313437145290e-07    5  5  5  2
 -3.751067069279e-08    5  5  5  3
  6.025058867430e-08    5  5  5  4
  7.448878386960e-01    5  5  5  5
  1.051461799356e-03    6  1  1  1
  5.789152583745e-04    6  1  2  1
 -4.895746881109e-04    6  1  2  2
  9.399233892422e-04    6  1  3  1
  1.016241478136e-03    6  1  3  2
 -1.109129211125e-03    6  1  3  3
  4.201237957432e-04    6  1  4  1
 -7.367404977269e-04    6  1  4  2
  1.601676628033e-03    6  1  4  3
  1.147978071428e-03    6  1  4  4
  2.418624447220e-03    6  1  5  1
 -4.036846501348e-04    6  1  5  2
 -5.029193736050e-04    6  1  5  3
 -8.299345260263e-04    6  1  5  4
 -6.251320172677e-04    6  1  5  5
  6.789490992022e-03    6  1  6  1
  5.815162528800e-04    6  2  1  1
 -4.850599154098e-04    6  2  2  1
  1.194218230015e-03    6  2  2  2
  1.016545222176e-03    6  2  3  1
  1.557579272393e-04    6  2  3  2
  1.652385048734e-03    6  2  3  3
 -7.369126131865e-04    6  2  4  1
 -1.907386390144e-03    6  2  4  2
  4.279962452472e-04    6  2  4  3
 -1.470297280795e-03    6  2  4  4
 -4.038457213247e-04    6  2  5  1
  1.745243177882e-03    6  2  5  2
  4.964553474504e-04    6  2  5  3
 -5.495313432575e-04    6  2  5  4
 -1.946557454148e-03    6  2  5  5
  1.943632640365e-08    6  2  6  1
  6.789600180534e-03    6  2  6  2
  9.407459634982e-04    6  3  1  1
  1.016533608885e-03    6  3  2  1
  1.562879605602e-04    6  3  2  2
 -1.104763650924e-03    6  3  3  1
  1.650738509517e-03    6  3  3  2
  1.109274494559e-03    6  3  3  3
  1.602096428532e-03    6  3  4  1
  4.282369241824e-04    6  3  4  2
 -1.928814645993e-04    6  3  4  3
 -1.924751194629e-03    6  3  4  4
 -5.032486303496e-04    6  3  5  1
  4.963386432573e-04    6  3  5  2
 -1.776490479283e-03    6  3  5  3
 -5.097488604975e-04    6  3  5  4
 -2.785105098291e-04    6  3  5  5
 -2.935167393290e-08    6  3  6  1
 -4.632061185173e-08    6  3  6  2
  6.789722286909e-03    6  3  6  3
  4.151502003341e-04    6  4  1  1
 -7.367547135264e-04    6  4  2  1
 -1.912140018092e-03    6  4  2  2
  1.601780465869e-03    6  4  3  1
  4.281762725952e-04    6  4  3  2
 -1.976341869114e-04    6  4  3  3
  1.152774073122e-03    6  4  4  1
 -1.472602594691e-03    6  4  4  2
 -1.925028445474e-03    6  4  4  3
  9.501219950678e-04    6  4  4  4
 -8.300554833613e-04    6  4  5  1
 -5.494352700087e-04    6  4  5  2
 -5.097528312487e-04    6  4  5  3
 -4.967188220235e-04    6  4  5  4
  7.180409002602e-04    6  4  5  5
 -2.793639929729e-09    6  4  6  1
  5.575623292861e-08    6  4  6  2
  3.726200619855e-08    6  4  6  3
  6.789556095704e-03    6  4  6  4
  2.410636944002e-03    6  5  1  1
 -4.038410804426e-04    6  5  2  1
  1.737332624384e-03    6  5  2  2
 -5.030266340467e-04    6  5  3  1
  4.965360007426e-04    6  5  3  2
 -1.784552042642e-03    6  5  3  3
 -8.301364876345e-04    6  5  4  1
 -5.498461095397e-04    6  5  4  2
 -5.097379035045e-04    6  5  4  3
 -5.055168680725e-04    6  5  4  4
 -6.206212469669e-04    6  5  5  1
 -1.948389090399e-03    6  5  5  2
 -2.791473322075e-04    6  5  5  3
  7.232756879420e-04    6  5  5  4
 -1.901856511477e-03    6  5  5  5
 -9.502120353459e-09    6  5  6  1
  1.147051017086e-07    6  5  6  2
  3.412645601044e-08    6  5  6  3
 -6.664471279673e-09    6  5  6  4
  6.789647782775e-03    6  5  6  5
  2.989549746816e-01    6  6  1  1
  1.249043177116e-08    6  6  2  1
  2.989550868974e-01    6  6  2  2
 -3.096827920251e-08    6  6  3  1
 -3.805053702305e-08    6  6  3  2
  2.989551759000e-01    6  6  3  3
 -1.207392931956e-08    6  6  4  1
  4.673697068688e-08    6  6  4  2
  1.735747795701e-08    6  6  4  3
  2.989550498513e-01    6  6  4  4
 -2.449260708900e-08    6  6  5  1
  9.443469833704e-08    6  6  5  2
  2.755729468533e-08    6  6  5  3
 -8.037099653170e-10    6  6  5  4
  2.989551431688e-01    6  6  5  5
 -9.944997521957e-07    6  6  6  1
  4.366852576636e-07    6  6  6  2
  1.236255710535e-07    6  6  6  3
 -1.057933250847e-06    6  6  6  4
 -1.754183487245e-06    6  6  6  5
  2.316188149716e-01    6  6  6  6
 -3.309593146716e+00    1  1  0  0
  6.734540341449e-08    2  1  0  0
 -3.309593629497e+00    2  2  0  0
  9.823687107645e-08    3  1  0  0
 -1.137086956874e-07    3  2  0  0
 -3.309593272419e+00    3  3  0  0
  1.801486259995e-07    4  1  0  0
  1.293887897663e-07    4  2  0  0
  2.468452901089e-07    4  3  0  0
 -3.309593749932e+00    4  4  0  0
  1.731153928613e-07    5  1  0  0
  1.067415147591e-07    5  2  0  0
  8.533337406482e-08    5  3  0  0
 -1.487742356889e-07    5  4  0  0
 -3.309594148333e+00    5  5  0  0
  1.992993380468e-05    6  1  0  0
 -9.165004167509e-06    6  2  0  0
 -2.488534164450e-06    6  3  0  0
  2.158173340419e-05    6  4  0  0
  3.584423804270e-05    6  5  0  0
 -1.675380836103e+00    6  6  0  0
    -76.109179861000   0  0  0  0
