#INFO: **** input file is /projects/bamu3429/BENCHMARK/fresh_atoms/MRPT/atoms/Cr_1/mrpt.py ****
import json
from pyscf import gto,scf,mcscf, fci, lo, ci, cc
from pyscf.scf import ROHF, UHF,ROKS
import numpy as np
import pandas as pd

# THIS IS WERE IT STARTS ====================================

df=json.load(open("../../trail.json"))

spins={'Sc':1, 'Ti':2, 'V':3, 'Cr':6, 'Mn':5, 'Fe':4, 'Cu':1}

nd={'Sc':(1,0), 'Ti':(2,0), 'V':(3,0), 'Cr':(5,0), 'Mn':(5,0), 'Fe':(5,1), 'Cu':(5,5)}

cas={'Sc':3, 'Ti':4, 'V':5, 'Cr':6, 'Mn':7, 'Fe':8, 'Cu':11}

datacsv={}
for nm in ['atom','charge','method','basis','pseudopotential','hf',
           'totalenergy','totalenergy-stocherr','totalenergy-syserr']:
  datacsv[nm]=[]

basis='vdz'
el='Cr'
charge=1

mol=gto.Mole()
mol.ecp={}
mol.basis={}
mol.ecp[el]=gto.basis.parse_ecp(df[el]['ecp'])
mol.basis[el]=gto.basis.parse(df[el][basis])
mol.charge=charge
if el == 'Cr' or el == 'Cu':
  mol.spin=spins[el]-charge
else:
  mol.spin=spins[el]+charge
mol.build(atom="%s 0. 0. 0."%el,verbose=4)

m=ROHF(mol)
m.level_shift=1000.0
dm=m.from_chk("../../../HF/atoms/"+el+basis+str(charge)+".chk")
hf=m.kernel(dm)
m.analyze()

from pyscf.shciscf import shci
mc = shci.SHCISCF(m, 6, cas[el]-charge)
#mc.fcisolver.conv_tol = 1e-14
mc.fcisolver.mpiprefix="mpirun -np 28"
mc.fcisolver.num_thrds=12
mc.verbose = 4
cas=mc.kernel()[0]
 
from pyscf.icmpspt import icmpspt
pt=icmpspt.icmpspt(mc,rdmM=500, PTM=1000,\
                          pttype="MRLCC",\
                          third_order=True,\
                          fully_ic=True,\
                          do_dm4=True)

datacsv['atom'].append(el)
datacsv['charge'].append(charge)
datacsv['method'].append('MRPT')
datacsv['basis'].append(basis)
datacsv['pseudopotential'].append('trail')
datacsv['hf'].append(hf)
datacsv['totalenergy'].append(cas+pt)
datacsv['totalenergy-stocherr'].append(0.0)
datacsv['totalenergy-syserr'].append(0.0)
pd.DataFrame(datacsv).to_csv(el+".csv",index=False)

#INFO: ******************** input file end ********************


System: ('Linux', 'bnode0308.rc.int.colorado.edu', '3.10.0-514.41.1.el7.x86_64', '#1 SMP Wed Jan 17 10:26:16 EST 2018', 'x86_64', 'x86_64')  Threads 1
Python 2.7.11 (default, Mar 22 2016, 01:42:54) 
[GCC Intel(R) C++ gcc 4.8 mode]
numpy 1.11.1  scipy 0.17.1
Date: Fri Mar 23 16:20:50 2018
PySCF version 1.4
PySCF path  /projects/bamu3429/softwares/pyscf_uptodate/pyscf
GIT ORIG_HEAD e2292e6edec2b0e0024c21b81de03db1d7bd4121
GIT HEAD      ref: refs/heads/master
GIT master branch  f3591ef22170896a4cdc2aadaa6f5da388ffcadb

[INPUT] VERBOSE 4
[INPUT] num atoms = 1
[INPUT] num electrons = 13
[INPUT] charge = 1
[INPUT] spin (= nelec alpha-beta = 2S) = 5
[INPUT] symmetry False subgroup None
[INPUT]  1 Cr     0.000000000000   0.000000000000   0.000000000000 AA    0.000000000000   0.000000000000   0.000000000000 Bohr
[INPUT] ---------------- BASIS SET ---------------- 
[INPUT] l, kappa, [nprim/nctr], expnt,             c_1 c_2 ...
[INPUT] Cr
[INPUT] 0    0    [12   /1   ]  41.45590127       0.010332
                                22.20089455       -0.091393
                                12.37022616       0.412444
                                7.15443966        -0.722409
                                3.63012556        0.039693
                                1.88942247        0.321055
                                1.04381355        0.652182
                                0.47307333        0.264443
                                0.22628807        -0.008646
                                0.10750747        0.012188
                                0.05101028        -0.00242
                                0.0242372         0.001733
[INPUT] 0    0    [12   /1   ]  41.45590127       -0.001971
                                22.20089455       0.019152
                                12.37022616       -0.094562
                                7.15443966        0.178991
                                3.63012556        -0.015716
                                1.88942247        -0.084882
                                1.04381355        -0.243744
                                0.47307333        -0.214624
                                0.22628807        0.055092
                                0.10750747        0.415903
                                0.05101028        0.543473
                                0.0242372         0.170131
[INPUT] 0    0    [12   /1   ]  41.45590127       -0.005874
                                22.20089455       0.067618
                                12.37022616       -0.389148
                                7.15443966        0.863039
                                3.63012556        -0.192494
                                1.88942247        -1.243222
                                1.04381355        -0.159486
                                0.47307333        0.70074
                                0.22628807        0.796397
                                0.10750747        0.153618
                                0.05101028        -0.585106
                                0.0242372         -0.29462
[INPUT] 0    0    [1    /1   ]  0.0242372            1
[INPUT] 0    0    [1    /1   ]  0.01151614           1
[INPUT] 1    0    [12   /1   ]  28.88080716       -0.002973
                                13.19380569       0.044202
                                7.25722596        -0.232476
                                4.84342676        0.167654
                                2.76949909        0.179744
                                1.50719356        0.46058
                                0.72516508        0.338218
                                0.36385743        0.097984
                                0.16204617        0.012145
                                0.07447705        -0.000948
                                0.03422994        0.000821
                                0.01573221        -0.00022
[INPUT] 1    0    [12   /1   ]  28.88080716       0.000536
                                13.19380569       -0.009363
                                7.25722596        0.054752
                                4.84342676        -0.042977
                                2.76949909        -0.049244
                                1.50719356        -0.128712
                                0.72516508        -0.11682
                                0.36385743        0.044517
                                0.16204617        0.322192
                                0.07447705        0.482878
                                0.03422994        0.275764
                                0.01573221        0.025472
[INPUT] 1    0    [12   /1   ]  28.88080716       -0.000562
                                13.19380569       0.035351
                                7.25722596        -0.310475
                                4.84342676        0.257585
                                2.76949909        0.754226
                                1.50719356        0.194922
                                0.72516508        -0.904177
                                0.36385743        -0.438274
                                0.16204617        0.529934
                                0.07447705        0.455686
                                0.03422994        0.027191
                                0.01573221        0.005171
[INPUT] 1    0    [1    /1   ]  0.01573221           1
[INPUT] 1    0    [1    /1   ]  0.00723058           1
[INPUT] 2    0    [10   /1   ]  46.50908408       0.000358
                                21.60133229       -0.010512
                                11.03652449       0.11118
                                4.54288797        0.164184
                                2.18180243        0.267436
                                1.04009058        0.310836
                                0.48262909        0.28353
                                0.21570372        0.173079
                                0.10059873        0.057279
                                0.04653409        0.00937
[INPUT] 2    0    [10   /1   ]  46.50908408       0.000574
                                21.60133229       0.006454
                                11.03652449       -0.106748
                                4.54288797        -0.214222
                                2.18180243        -0.409175
                                1.04009058        -0.082468
                                0.48262909        0.284806
                                0.21570372        0.41458
                                0.10059873        0.246257
                                0.04653409        0.05398
[INPUT] 2    0    [1    /1   ]  0.04653409           1
[INPUT] 2    0    [1    /1   ]  0.02152533           1
[INPUT] 3    0    [1    /1   ]  2.094117             1
[INPUT] 3    0    [1    /1   ]  0.9686785            1
nuclear repulsion = 0
number of shells = 16
number of NR pGTOs = 276
number of NR cGTOs = 54
basis = {'Cr': [[0, [41.45590127, 0.010332], [22.20089455, -0.091393], [12.37022616, 0.412444], [7.15443966, -0.722409], [3.63012556, 0.039693], [1.88942247, 0.321055], [1.04381355, 0.652182], [0.47307333, 0.264443], [0.22628807, -0.008646], [0.10750747, 0.012188], [0.05101028, -0.00242], [0.0242372, 0.001733]], [0, [41.45590127, -0.001971], [22.20089455, 0.019152], [12.37022616, -0.094562], [7.15443966, 0.178991], [3.63012556, -0.015716], [1.88942247, -0.084882], [1.04381355, -0.243744], [0.47307333, -0.214624], [0.22628807, 0.055092], [0.10750747, 0.415903], [0.05101028, 0.543473], [0.0242372, 0.170131]], [0, [41.45590127, -0.005874], [22.20089455, 0.067618], [12.37022616, -0.389148], [7.15443966, 0.863039], [3.63012556, -0.192494], [1.88942247, -1.243222], [1.04381355, -0.159486], [0.47307333, 0.70074], [0.22628807, 0.796397], [0.10750747, 0.153618], [0.05101028, -0.585106], [0.0242372, -0.29462]], [0, [0.0242372, 1.0]], [0, [0.01151614, 1.0]], [1, [28.88080716, -0.002973], [13.19380569, 0.044202], [7.25722596, -0.232476], [4.84342676, 0.167654], [2.76949909, 0.179744], [1.50719356, 0.46058], [0.72516508, 0.338218], [0.36385743, 0.097984], [0.16204617, 0.012145], [0.07447705, -0.000948], [0.03422994, 0.000821], [0.01573221, -0.00022]], [1, [28.88080716, 0.000536], [13.19380569, -0.009363], [7.25722596, 0.054752], [4.84342676, -0.042977], [2.76949909, -0.049244], [1.50719356, -0.128712], [0.72516508, -0.11682], [0.36385743, 0.044517], [0.16204617, 0.322192], [0.07447705, 0.482878], [0.03422994, 0.275764], [0.01573221, 0.025472]], [1, [28.88080716, -0.000562], [13.19380569, 0.035351], [7.25722596, -0.310475], [4.84342676, 0.257585], [2.76949909, 0.754226], [1.50719356, 0.194922], [0.72516508, -0.904177], [0.36385743, -0.438274], [0.16204617, 0.529934], [0.07447705, 0.455686], [0.03422994, 0.027191], [0.01573221, 0.005171]], [1, [0.01573221, 1.0]], [1, [0.00723058, 1.0]], [2, [46.50908408, 0.000358], [21.60133229, -0.010512], [11.03652449, 0.11118], [4.54288797, 0.164184], [2.18180243, 0.267436], [1.04009058, 0.310836], [0.48262909, 0.28353], [0.21570372, 0.173079], [0.10059873, 0.057279], [0.04653409, 0.00937]], [2, [46.50908408, 0.000574], [21.60133229, 0.006454], [11.03652449, -0.106748], [4.54288797, -0.214222], [2.18180243, -0.409175], [1.04009058, -0.082468], [0.48262909, 0.284806], [0.21570372, 0.41458], [0.10059873, 0.246257], [0.04653409, 0.05398]], [2, [0.04653409, 1.0]], [2, [0.02152533, 1.0]], [3, [2.094117, 1.0]], [3, [0.9686785, 1.0]]]}
ecp = {'Cr': [10, [[-1, [[], [[13.07675203, 14.0]], [[15.15807582, 1258.1555038], [4.62785686, -98.60998187], [15.41136599, -6552.46055066], [15.38690637, 5353.09061557]], [[5.24897308, 183.07452839]]]], [0, [[], [], [[9.77680844, -91901.2080948], [9.95980111, 96320.14803227], [8.62275214, 3928.3135917], [12.29288144, -10977.62459544], [18.41316592, -1741.60409682], [16.38541961, 4413.26493033]], []]], [1, [[], [], [[12.00099996, -22156.17142851], [11.46524435, 21551.07876111], [16.23852226, 3703.78784703], [18.43861108, -1424.18632323], [8.88877941, -1964.93568469], [7.52644784, 317.50498882]], []]], [2, [[], [], [[11.1066837, -5435.29666496], [8.49801115, 7350.69608766], [12.28065533, 2443.80334995], [8.1885354, -5401.76770998], [14.34306836, 3881.23075486], [15.24784181, -2855.87137953]], []]]]]}
CPU time:         0.64


******** <class 'pyscf.scf.rohf.ROHF'> flags ********
method = ROHF
initial guess = minao
damping factor = 0
level shift factor = 1000.0
DIIS = <class 'pyscf.scf.diis.CDIIS'>
DIIS start cycle = 1
DIIS space = 8
SCF tol = 1e-09
SCF gradient tol = None
max. SCF cycles = 50
direct_scf = True
direct_scf_tol = 1e-13
chkfile to save SCF result = /projects/bamu3429/BENCHMARK/fresh_atoms/MRPT/atoms/Cr_1/tmpOmajcR
max_memory 4000 MB (current use 81 MB)
num. doubly occ = 4  num. singly occ = 5
Set gradient conv threshold to 3.16228e-05
init E= -85.9963055842106
  HOMO = 499.779722347535  LUMO = 999.802420580503
cycle= 1 E= -85.9963055842106  delta_E= -1.42e-14  |g|= 6.13e-06  |ddm|= 1.8e-08
  HOMO = -0.220277650340495  LUMO = -0.197579419326769
Extra cycle  E= -85.9963055840969  delta_E= 1.14e-10  |g|= 7.53e-06  |ddm|= 4.86e-05
converged SCF energy = -85.9963055840969
**** MO energy ****
                Roothaan           | alpha              | beta
MO #1   energy= -3.67665881364137  | -3.86299219539296  | -3.49032543188971  occ= 2
MO #2   energy= -2.37629509789202  | -2.60510381604201  | -2.14748637974239  occ= 2
MO #3   energy= -2.37629499154569  | -2.60510370827279  | -2.14748627481866  occ= 2
MO #4   energy= -2.37629495777729  | -2.60510358639733  | -2.14748632915735  occ= 2
MO #5   energy= -0.220277834995984 | -0.645256624709524 | 0.204701501617507  occ= 1
MO #6   energy= -0.220277768150576 | -0.645257010557914 | 0.204701727202888  occ= 1
MO #7   energy= -0.220277728289267 | -0.645257020648424 | 0.204701671622513  occ= 1
MO #8   energy= -0.22027768036386  | -0.645257296327824 | 0.204701795107889  occ= 1
MO #9   energy= -0.220277650340495 | -0.645257645751255 | 0.204701952543472  occ= 1
MO #10  energy= -0.197579419326769 | -0.214553430976459 | -0.180605407928155 occ= 0
MO #11  energy= -0.109796540583798 | -0.115995298086987 | -0.103597783090499 occ= 0
MO #12  energy= -0.109796503991446 | -0.115995371297686 | -0.103597636694483 occ= 0
MO #13  energy= -0.109796499543948 | -0.115995350453666 | -0.103597648657522 occ= 0
MO #14  energy= -0.0719780373029163 | -0.0747946632605892 | -0.0691614113470865 occ= 0
MO #15  energy= -0.0495257623234084 | -0.0513125800312833 | -0.0477389446183641 occ= 0
MO #16  energy= -0.0495257530847402 | -0.0513125978335561 | -0.0477389083371937 occ= 0
MO #17  energy= -0.0495257519703533 | -0.0513125930370557 | -0.047738910903991 occ= 0
MO #18  energy= -0.0473424474512177 | -0.0483569528821456 | -0.0463276495845017 occ= 0
MO #19  energy= -0.0473424041552171 | -0.0483569406596052 | -0.0463277619569667 occ= 0
MO #20  energy= -0.0473423945556063 | -0.0483569413330044 | -0.0463278085770743 occ= 0
MO #21  energy= -0.0473423669244453 | -0.0483569203027927 | -0.0463278041728946 occ= 0
MO #22  energy= -0.0473423525904653 | -0.0483569214228667 | -0.0463278707750993 occ= 0
MO #23  energy= 0.0228365499175922 | 0.00971308008607544 | 0.0359600197476219 occ= 0
MO #24  energy= 0.0228365776932892 | 0.00971293921580396 | 0.0359602161692059 occ= 0
MO #25  energy= 0.0228365869520104 | 0.00971297647975046 | 0.0359601974205953 occ= 0
MO #26  energy= 0.053451494585951  | 0.0467069293685588 | 0.0601961256017485 occ= 0
MO #27  energy= 0.0534515317712068 | 0.0467069587310829 | 0.0601962032449931 occ= 0
MO #28  energy= 0.0534515885705125 | 0.0467069963802348 | 0.0601962451234163 occ= 0
MO #29  energy= 0.0534516445475911 | 0.0467070050349948 | 0.0601961845347144 occ= 0
MO #30  energy= 0.0534516568808039 | 0.0467070008808219 | 0.0601961264130692 occ= 0
MO #31  energy= 0.0834690050026066 | 0.0732667148120319 | 0.0936712951926375 occ= 0
MO #32  energy= 1.22615705444183   | 1.12915363567345   | 1.323160765314     occ= 0
MO #33  energy= 1.22615739529188   | 1.1291539094397    | 1.32316088290863   occ= 0
MO #34  energy= 1.22615763721249   | 1.12915409927898   | 1.32316098712467   occ= 0
MO #35  energy= 1.22615779783639   | 1.12915422325576   | 1.32316109140772   occ= 0
MO #36  energy= 1.22615795625312   | 1.12915437895813   | 1.32316103234932   occ= 0
MO #37  energy= 1.63406328494688   | 1.57348109481839   | 1.69464547507502   occ= 0
MO #38  energy= 2.67898134818446   | 2.58030035859606   | 2.77766233777286   occ= 0
MO #39  energy= 2.67898136835897   | 2.58030037094345   | 2.7776623657745    occ= 0
MO #40  energy= 2.67898138608299   | 2.58030037485253   | 2.77766239731345   occ= 0
MO #41  energy= 2.67898145881884   | 2.58030040158149   | 2.77766251605619   occ= 0
MO #42  energy= 2.67898146551332   | 2.58030041912799   | 2.77766251189865   occ= 0
MO #43  energy= 2.67898160872533   | 2.58030048317721   | 2.77766273427345   occ= 0
MO #44  energy= 2.67898160893858   | 2.58030048371582   | 2.77766273416134   occ= 0
MO #45  energy= 2.7224912578848    | 2.64189339074191   | 2.8030891250277    occ= 0
MO #46  energy= 2.72249134778096   | 2.64189346022103   | 2.80308923534116   occ= 0
MO #47  energy= 2.72249136741755   | 2.64189347419193   | 2.80308926064368   occ= 0
MO #48  energy= 7.43663989953752   | 7.34061738870075   | 7.53266241037429   occ= 0
MO #49  energy= 7.43663990376104   | 7.34061740752032   | 7.53266240000177   occ= 0
MO #50  energy= 7.43663995003857   | 7.34061752471782   | 7.53266237535932   occ= 0
MO #51  energy= 7.43663996328261   | 7.34061756015022   | 7.53266236641501   occ= 0
MO #52  energy= 7.43663998264166   | 7.34061758221667   | 7.53266238306664   occ= 0
MO #53  energy= 7.43664000440298   | 7.34061763745069   | 7.53266237135528   occ= 0
MO #54  energy= 7.43664000622374   | 7.34061763289739   | 7.5326623795501    occ= 0
 ** Mulliken pop on meta-lowdin orthogonal AOs  **
 ** Mulliken pop  **
pop of  0Cr 3s        1.99990
pop of  0Cr 4s        0.00000
pop of  0Cr 5s        0.00010
pop of  0Cr 6s        0.00000
pop of  0Cr 7s        0.00000
pop of  0Cr 3px       1.99989
pop of  0Cr 3py       1.99989
pop of  0Cr 3pz       1.99989
pop of  0Cr 4px       0.00006
pop of  0Cr 4py       0.00006
pop of  0Cr 4pz       0.00006
pop of  0Cr 5px       0.00004
pop of  0Cr 5py       0.00004
pop of  0Cr 5pz       0.00004
pop of  0Cr 6px       0.00000
pop of  0Cr 6py       0.00000
pop of  0Cr 6pz       0.00000
pop of  0Cr 7px       0.00000
pop of  0Cr 7py       0.00000
pop of  0Cr 7pz       0.00000
pop of  0Cr 3dxy      0.99964
pop of  0Cr 3dyz      0.99964
pop of  0Cr 3dz^2     0.99964
pop of  0Cr 3dxz      0.99964
pop of  0Cr 3dx2-y2    0.99964
pop of  0Cr 4dxy      0.00028
pop of  0Cr 4dyz      0.00028
pop of  0Cr 4dz^2     0.00028
pop of  0Cr 4dxz      0.00028
pop of  0Cr 4dx2-y2    0.00028
pop of  0Cr 5dxy      0.00007
pop of  0Cr 5dyz      0.00007
pop of  0Cr 5dz^2     0.00007
pop of  0Cr 5dxz      0.00007
pop of  0Cr 5dx2-y2    0.00007
pop of  0Cr 6dxy      0.00001
pop of  0Cr 6dyz      0.00001
pop of  0Cr 6dz^2     0.00001
pop of  0Cr 6dxz      0.00001
pop of  0Cr 6dx2-y2    0.00001
pop of  0Cr 4fy^3     0.00000
pop of  0Cr 4fxyz     0.00000
pop of  0Cr 4fyz^2    0.00000
pop of  0Cr 4fz^3     0.00000
pop of  0Cr 4fxz^2    0.00000
pop of  0Cr 4fzx^2    0.00000
pop of  0Cr 4fx^3     0.00000
pop of  0Cr 5fy^3     0.00000
pop of  0Cr 5fxyz     0.00000
pop of  0Cr 5fyz^2    0.00000
pop of  0Cr 5fz^3     0.00000
pop of  0Cr 5fxz^2    0.00000
pop of  0Cr 5fzx^2    0.00000
pop of  0Cr 5fx^3     0.00000
 ** Mulliken atomic charges  **
charge of  0Cr =      1.00000

******** <class 'pyscf.mcscf.mc1step.CASSCF'> flags ********
CAS (5e+0e, 6o), ncore = 4, nvir = 44
max_cycle_macro = 50
max_cycle_micro = 4
conv_tol = 1e-07
conv_tol_grad = None
orbital rotation max_stepsize = 0.02
augmented hessian ah_max_cycle = 30
augmented hessian ah_conv_tol = 1e-12
augmented hessian ah_linear dependence = 1e-14
augmented hessian ah_level shift = 0
augmented hessian ah_start_tol = 2.5
augmented hessian ah_start_cycle = 3
augmented hessian ah_grad_trust_region = 3
kf_trust_region = 3
kf_interval = 4
ci_response_space = 4
ci_grad_trust_region = 3
with_dep4 0
natorb = False
canonicalization = True
chkfile = ./scratch/86576/tmpfWI0Sw
max_memory 4000 MB (current use 97 MB)
internal_rotation = False

******** SHCI flags ********
executable             = /home/bamu3429/softwares/dice/Dice
mpiprefix              = mpirun -np 28
scratchDirectory       = ./scratch/86576
integralFile           = ./FCIDUMP
configFile             = ./input.dat
outputFile             = ./output.dat
maxIter                = 6
sweep_iter             = []
sweep_epsilon          = []
nPTiter                = 0
Stochastic             = True
fullrestart            = False
restart                = False
num_thrds              = 12
memory                 = None

CASCI E = -85.9963055840949  S^2 = 8.7500000
Set conv_tol_grad to 0.000316228
macro iter 1 (1 JK  1 micro), CASSCF E = -85.9963055840949  dE = 0  S^2 = 8.7500000
               |grad[o]|=6.33e-06  |grad[c]|= None  |ddm|=    0
1-step CASSCF converged in 1 macro (1 JK 1 micro) steps
CASSCF canonicalization
CASSCF energy = -85.9963055840949


--------------------------------------------------
                 ICMPSPT CALCULATION              
--------------------------------------------------

Perturbation type: MRLCC
With fully internally contracted scheme
With third order correction

Preparing necessary RDMs
......production of RDMs took       0.37 sec
Reading binary 4RDM from DICE
......reading the RDM took          0.95 sec

(GOOD) Trace 4RDM:    120.0 =    5*    4*    3*    2
(GOOD) Trace 3RDM:     60.0 =    5*    4*    3
(GOOD) Trace 2RDM:     20.0 =    5*    4
(GOOD) Trace 1RDM:      5.0 =    5

Producing the integrals
......production of INT took      86.86 sec

Energy_core =  -76.109179861
Energy      =  -85.9963055841

WARNING: Have to use natural orbitals from CAASCF
         offdiagonal elements: 0.532999398588

Basic ingredients written to int/
......savings of INGREDIENTS took      15.09 sec

Second-order:
perturber CCVV --        -0.080919603
perturber CCAV --        -0.046203058
perturber ACVV --        -0.112550504
perturber CCAA --        -0.023738506
perturber AAVV --        -0.073432647
perturber CAAV --        -0.080952317
perturber AAAV --        -0.000000000
perturber AAAC --        -0.000000019
Total:                   -0.417796655

Third-order:              0.000775791

Total PT       --        -0.417020863

