 &FCI NORB=6 ,NELEC=6 ,MS2=6,
  ORBSYM=1,1,1,1,1,1,
  ISYM=1,
 &END
  8.668141162493e-01    1  1  1  1
  3.879830075665e-02    2  1  2  1
  7.892175147360e-01    2  2  1  1
  8.668141162493e-01    2  2  2  2
 -5.952742264853e-04    3  1  2  1
 -1.760499208253e-03    3  1  2  2
  3.276984325945e-02    3  1  3  1
  1.190548452972e-03    3  2  1  1
  8.802496041262e-04    3  2  2  1
 -6.233833614181e-03    3  2  3  1
  2.441268781875e-02    3  2  3  2
  8.012744297305e-01    3  3  1  1
  1.246766722836e-02    3  3  2  1
  8.179887406118e-01    3  3  2  2
  8.668141162494e-01    3  3  3  3
 -2.464326134446e-05    4  1  2  1
  1.261625256802e-03    4  1  2  2
 -5.243861993912e-03    4  1  3  1
  3.707642304827e-03    4  1  3  2
  4.394040061170e-03    4  1  3  3
  2.347004615850e-02    4  1  4  1
  4.928652268873e-05    4  2  1  1
 -6.308126284005e-04    4  2  2  1
  3.085527389127e-03    4  2  3  1
  4.602713904677e-03    4  2  3  2
 -4.544411887219e-03    4  2  3  3
 -3.812083340756e-04    4  2  4  1
  3.376152786263e-02    4  2  4  2
  1.048772398782e-02    4  3  1  1
 -6.793169693954e-03    4  3  2  1
 -9.205427809354e-03    4  3  2  2
 -2.197020030585e-03    4  3  3  1
  2.272205943609e-03    4  3  3  2
  5.380003974532e-03    4  3  4  1
 -2.387047353548e-03    4  3  4  2
  3.462046550668e-02    4  3  4  3
  8.198740239323e-01    4  4  1  1
  7.624166681512e-04    4  4  2  1
  7.992910605241e-01    4  4  2  2
 -1.076000794906e-02    4  4  3  1
  4.774094707096e-03    4  4  3  2
  7.975731852360e-01    4  4  3  3
  8.668141162494e-01    4  4  4  4
 -1.984172138904e-04    5  1  2  1
  9.745657590271e-04    5  1  2  2
  2.017251161937e-03    5  1  3  1
  2.970624299570e-03    5  1  3  2
  7.571719639892e-03    5  1  3  3
  4.747098334529e-03    5  1  4  1
  4.874926942162e-03    5  1  4  2
  7.679723797018e-03    5  1  4  3
 -8.546285398919e-03    5  1  4  4
  3.018372406717e-02    5  1  5  1
  3.968344277809e-04    5  2  1  1
 -4.872828795135e-04    5  2  2  1
  2.596353121250e-03    5  2  3  1
 -1.953361243426e-03    5  2  3  2
  8.675340658982e-03    5  2  3  3
  3.033655844541e-03    5  2  4  1
 -5.389157689257e-03    5  2  4  2
  7.847003388423e-03    5  2  4  3
 -9.072175086763e-03    5  2  4  4
  6.615041948257e-03    5  2  5  1
  2.824939780374e-02    5  2  5  2
 -4.034502323875e-03    5  3  1  1
 -5.566977420821e-03    5  3  2  1
  3.906722486852e-03    5  3  2  2
 -3.785859819946e-03    5  3  3  1
 -4.337670329491e-03    5  3  3  2
 -1.930203000488e-04    5  3  4  1
 -1.324578120692e-02    5  3  4  2
  6.420593547279e-04    5  3  4  3
  1.277798370231e-04    5  3  4  4
 -6.260253578658e-03    5  3  5  1
  2.982321580033e-03    5  3  5  2
  3.341891765689e-02    5  3  5  3
 -9.494196669059e-03    5  4  1  1
 -7.908582786703e-03    5  4  2  1
  1.077831537851e-02    5  4  2  2
 -7.486703496969e-03    5  4  3  1
  5.398777818500e-03    5  4  3  2
 -1.284118709456e-03    5  4  3  3
  4.273142699460e-03    5  4  4  1
  4.536087543382e-03    5  4  4  2
 -6.388991851133e-05    5  4  4  3
  2.827832658985e-03    5  4  5  1
 -2.247562682265e-03    5  4  5  2
  6.411480892351e-04    5  4  5  3
  3.336987471396e-02    5  4  5  4
  8.064466681150e-01    5  5  1  1
 -1.323008389651e-02    5  5  2  1
  8.103153206419e-01    5  5  2  2
  1.252050715732e-02    5  5  3  1
 -5.964643160066e-03    5  5  3  2
  7.999762809356e-01    5  5  3  3
 -5.655665317970e-03    5  5  4  1
  4.495125364530e-03    5  5  4  2
 -1.282296178471e-03    5  5  4  3
  8.000743668214e-01    5  5  4  4
  8.668141162494e-01    5  5  5  5
  2.775539697561e-04    6  1  1  1
 -1.225428519387e-03    6  1  2  1
 -2.904206088316e-04    6  1  2  2
  1.700670597481e-04    6  1  3  1
 -9.068078792360e-05    6  1  3  2
 -8.578526470381e-04    6  1  3  3
 -4.224152194413e-05    6  1  4  1
  7.634638085700e-05    6  1  4  2
  5.428260879524e-04    6  1  4  3
 -9.710135054238e-06    6  1  4  4
  4.431421117810e-05    6  1  5  1
  6.498267147690e-05    6  1  5  2
  2.368690757740e-04    6  1  5  3
  2.833025029377e-04    6  1  5  4
  8.804294211711e-04    6  1  5  5
  9.133620745834e-03    6  1  6  1
 -1.225428519390e-03    6  2  1  1
 -2.904206088322e-04    6  2  2  1
  1.235450991844e-03    6  2  2  2
 -9.068078792358e-05    6  2  3  1
 -2.009380907649e-05    6  2  3  2
  3.618840995571e-04    6  2  3  3
  7.634638085696e-05    6  2  4  1
 -3.599673758839e-07    6  2  4  2
 -4.604802024556e-04    6  2  4  3
 -6.324266745298e-04    6  2  4  4
  6.498267147688e-05    6  2  5  1
  1.717522988341e-05    6  2  5  2
  3.257725752470e-04    6  2  5  3
  7.648707067817e-04    6  2  5  4
  2.605201025005e-04    6  2  5  5
  9.133620745834e-03    6  2  6  2
  1.700670597482e-04    6  3  1  1
 -9.068078792359e-05    6  3  2  1
 -2.009380907633e-05    6  3  2  2
 -8.578526470385e-04    6  3  3  1
  3.618840995606e-04    6  3  3  2
  3.372883315992e-04    6  3  3  3
  5.428260879523e-04    6  3  4  1
 -4.604802024556e-04    6  3  4  2
  6.928524947682e-04    6  3  4  3
  3.495264344706e-04    6  3  4  4
  2.368690757740e-04    6  3  5  1
  3.257725752471e-04    6  3  5  2
  3.882047125740e-04    6  3  5  3
  4.029933967317e-04    6  3  5  4
 -8.367880167409e-04    6  3  5  5
  9.133620745834e-03    6  3  6  3
 -4.224152194420e-05    6  4  1  1
  7.634638085698e-05    6  4  2  1
 -3.599673759577e-07    6  4  2  2
  5.428260879523e-04    6  4  3  1
 -4.604802024556e-04    6  4  3  2
  6.928524947682e-04    6  4  3  3
 -9.710135054866e-06    6  4  4  1
 -6.324266745264e-04    6  4  4  2
  3.495264344705e-04    6  4  4  3
 -8.981350561938e-04    6  4  4  4
  2.833025029375e-04    6  4  5  1
  7.648707067819e-04    6  4  5  2
  4.029933967319e-04    6  4  5  3
 -5.315158225464e-04    6  4  5  4
  2.478840507453e-04    6  4  5  5
  9.133620745834e-03    6  4  6  4
  4.431421117812e-05    6  5  1  1
  6.498267147690e-05    6  5  2  1
  1.717522988345e-05    6  5  2  2
  2.368690757740e-04    6  5  3  1
  3.257725752471e-04    6  5  3  2
  3.882047125739e-04    6  5  3  3
  2.833025029376e-04    6  5  4  1
  7.648707067819e-04    6  5  4  2
  4.029933967317e-04    6  5  4  3
 -5.315158225462e-04    6  5  4  4
  8.804294211703e-04    6  5  5  1
  2.605201025043e-04    6  5  5  2
 -8.367880167411e-04    6  5  5  3
  2.478840507455e-04    6  5  5  4
  8.182166891096e-05    6  5  5  5
  9.133620745834e-03    6  5  6  5
  3.824154250270e-01    6  6  1  1
  3.824154250270e-01    6  6  2  2
  3.824154250270e-01    6  6  3  3
  3.824154250270e-01    6  6  4  4
  3.824154250270e-01    6  6  5  5
  3.029763904165e-01    6  6  6  6
 -4.404975112411e+00    1  1  0  0
 -4.404975112411e+00    2  2  0  0
 -4.404975112411e+00    3  3  0  0
 -4.404975112411e+00    4  4  0  0
 -4.404975112411e+00    5  5  0  0
 -2.416508985499e+00    6  6  0  0
    -88.447360488410   0  0  0  0
