#INFO: **** input file is /projects/bamu3429/BENCHMARK/fresh_atoms/MRPT/vdz/atoms/Mn_1/mrpt.py ****
import json
from pyscf import gto,scf,mcscf, fci, lo, ci, cc
from pyscf.scf import ROHF, UHF,ROKS
import numpy as np
import pandas as pd

# THIS IS WERE IT STARTS ====================================

df=json.load(open("../../../trail.json"))

spins={'Sc':1, 'Ti':2, 'V':3, 'Cr':6, 'Mn':5, 'Fe':4, 'Cu':1}

nd={'Sc':(1,0), 'Ti':(2,0), 'V':(3,0), 'Cr':(5,0), 'Mn':(5,0), 'Fe':(5,1), 'Cu':(5,5)}

cas={'Sc':3, 'Ti':4, 'V':5, 'Cr':6, 'Mn':7, 'Fe':8, 'Cu':11}

datacsv={}
for nm in ['atom','charge','method','basis','pseudopotential','hf',
           'totalenergy','totalenergy-stocherr','totalenergy-syserr']:
  datacsv[nm]=[]

basis='vdz'
el='Mn'
charge=1

mol=gto.Mole()
mol.ecp={}
mol.basis={}
mol.ecp[el]=gto.basis.parse_ecp(df[el]['ecp'])
mol.basis[el]=gto.basis.parse(df[el][basis])
mol.charge=charge
if el == 'Cr' or el == 'Cu':
  mol.spin=spins[el]-charge
else:
  mol.spin=spins[el]+charge
mol.build(atom="%s 0. 0. 0."%el,verbose=4)

m=ROHF(mol)
m.level_shift=1000.0
dm=m.from_chk("../../../../HF/atoms/"+el+basis+str(charge)+".chk")
hf=m.kernel(dm)
m.analyze()

from pyscf.shciscf import shci
mc = shci.SHCISCF(m, 6, cas[el]-charge)
#mc.fcisolver.conv_tol = 1e-14
mc.fcisolver.mpiprefix="srun -n20"
mc.fcisolver.num_thrds=12
mc.verbose = 4
cas=mc.kernel()[0]
 
from pyscf.icmpspt import icmpspt
pt=icmpspt.icmpspt(mc,rdmM=500, PTM=1000,\
                          pttype="MRLCC",\
                          third_order=True,\
                          fully_ic=True,\
                          do_dm4=True)

datacsv['atom'].append(el)
datacsv['charge'].append(charge)
datacsv['method'].append('MRPT')
datacsv['basis'].append(basis)
datacsv['pseudopotential'].append('trail')
datacsv['hf'].append(hf)
datacsv['totalenergy'].append(cas+pt)
datacsv['totalenergy-stocherr'].append(0.0)
datacsv['totalenergy-syserr'].append(0.0)
pd.DataFrame(datacsv).to_csv(el+".csv",index=False)

#INFO: ******************** input file end ********************


System: ('Linux', 'bnode0302.rc.int.colorado.edu', '3.10.0-514.41.1.el7.x86_64', '#1 SMP Wed Jan 17 10:26:16 EST 2018', 'x86_64', 'x86_64')  Threads 28
Python 2.7.11 (default, Mar 22 2016, 01:42:54) 
[GCC Intel(R) C++ gcc 4.8 mode]
numpy 1.11.1  scipy 0.17.1
Date: Wed Apr 18 12:07:53 2018
PySCF version 1.4.6
PySCF path  /projects/bamu3429/softwares/pyscf_uptodate/pyscf
GIT ORIG_HEAD f3591ef22170896a4cdc2aadaa6f5da388ffcadb
GIT HEAD      ref: refs/heads/master
GIT master branch  1847583fb1d2472321833d3c71c8b7008e5fabf5

[INPUT] VERBOSE 4
[INPUT] num atoms = 1
[INPUT] num electrons = 14
[INPUT] charge = 1
[INPUT] spin (= nelec alpha-beta = 2S) = 6
[INPUT] symmetry False subgroup None
[INPUT]  1 Mn     0.000000000000   0.000000000000   0.000000000000 AA    0.000000000000   0.000000000000   0.000000000000 Bohr
[INPUT] ---------------- BASIS SET ---------------- 
[INPUT] l, kappa, [nprim/nctr], expnt,             c_1 c_2 ...
[INPUT] Mn
[INPUT] 0    0    [12   /1   ]  41.19094709       0.0124
                                21.94503151       -0.141461
                                12.89081507       0.669584
                                8.14876869        -1.015431
                                3.94904809        0.149151
                                1.91298055        0.350677
                                1.10736282        0.627006
                                0.4793266         0.235349
                                0.22675293        -0.024214
                                0.10639652        0.017357
                                0.05000494        -0.005272
                                0.0234982         0.002181
[INPUT] 0    0    [12   /1   ]  41.19094709       -0.002036
                                21.94503151       0.02709
                                12.89081507       -0.142056
                                8.14876869        0.229945
                                3.94904809        -0.035538
                                1.91298055        -0.085336
                                1.10736282        -0.24355
                                0.4793266         -0.201798
                                0.22675293        0.098761
                                0.10639652        0.439512
                                0.05000494        0.524416
                                0.0234982         0.13192
[INPUT] 0    0    [12   /1   ]  41.19094709       -0.004448
                                21.94503151       0.086272
                                12.89081507       -0.555298
                                8.14876869        1.050441
                                3.94904809        -0.337173
                                1.91298055        -1.203908
                                1.10736282        -0.006079
                                0.4793266         0.670363
                                0.22675293        0.824311
                                0.10639652        0.061945
                                0.05000494        -0.613998
                                0.0234982         -0.243067
[INPUT] 0    0    [1    /1   ]  0.0234982            1
[INPUT] 0    0    [1    /1   ]  0.01104221           1
[INPUT] 1    0    [12   /1   ]  60.1913049        0.000757
                                31.1792672        -0.006538
                                16.24276866       0.042902
                                8.80021485        -0.164602
                                5.33575038        0.099387
                                3.0325056         0.217723
                                1.63861968        0.443669
                                0.80258711        0.32785
                                0.40627833        0.098641
                                0.17382998        0.011768
                                0.07306386        -0.000703
                                0.03071005        0.000403
[INPUT] 1    0    [12   /1   ]  60.1913049        -0.000118
                                31.1792672        0.001208
                                16.24276866       -0.009122
                                8.80021485        0.038924
                                5.33575038        -0.027473
                                3.0325056         -0.058215
                                1.63861968        -0.124371
                                0.80258711        -0.107355
                                0.40627833        0.040741
                                0.17382998        0.350952
                                0.07306386        0.523294
                                0.03071005        0.234255
[INPUT] 1    0    [12   /1   ]  60.1913049        -0.000211
                                31.1792672        -0.002024
                                16.24276866       0.037014
                                8.80021485        -0.235453
                                5.33575038        0.184384
                                3.0325056         0.808525
                                1.63861968        0.15119
                                0.80258711        -0.861849
                                0.40627833        -0.476701
                                0.17382998        0.542345
                                0.07306386        0.419535
                                0.03071005        0.008828
[INPUT] 1    0    [1    /1   ]  0.03071005           1
[INPUT] 1    0    [1    /1   ]  0.01290798           1
[INPUT] 2    0    [10   /1   ]  52.56900844       0.000307
                                23.81654224       -0.007961
                                11.32693504       0.114253
                                4.99176622        0.164228
                                2.46839125        0.269996
                                1.15974738        0.320627
                                0.53124091        0.273188
                                0.24220121        0.161357
                                0.11248934        0.058244
                                0.05201371        0.009574
[INPUT] 2    0    [10   /1   ]  52.56900844       0.000227
                                23.81654224       0.005426
                                11.32693504       -0.108395
                                4.99176622        -0.200206
                                2.46839125        -0.359104
                                1.15974738        -0.096632
                                0.53124091        0.250081
                                0.24220121        0.404676
                                0.11248934        0.295662
                                0.05201371        0.077911
[INPUT] 2    0    [1    /1   ]  0.05201371           1
[INPUT] 2    0    [1    /1   ]  0.02405051           1
[INPUT] 3    0    [1    /1   ]  2.379676             1
[INPUT] 3    0    [1    /1   ]  1.10033338           1
nuclear repulsion = 0
number of shells = 16
number of NR pGTOs = 276
number of NR cGTOs = 54
basis = {'Mn': [[0, [41.19094709, 0.0124], [21.94503151, -0.141461], [12.89081507, 0.669584], [8.14876869, -1.015431], [3.94904809, 0.149151], [1.91298055, 0.350677], [1.10736282, 0.627006], [0.4793266, 0.235349], [0.22675293, -0.024214], [0.10639652, 0.017357], [0.05000494, -0.005272], [0.0234982, 0.002181]], [0, [41.19094709, -0.002036], [21.94503151, 0.02709], [12.89081507, -0.142056], [8.14876869, 0.229945], [3.94904809, -0.035538], [1.91298055, -0.085336], [1.10736282, -0.24355], [0.4793266, -0.201798], [0.22675293, 0.098761], [0.10639652, 0.439512], [0.05000494, 0.524416], [0.0234982, 0.13192]], [0, [41.19094709, -0.004448], [21.94503151, 0.086272], [12.89081507, -0.555298], [8.14876869, 1.050441], [3.94904809, -0.337173], [1.91298055, -1.203908], [1.10736282, -0.006079], [0.4793266, 0.670363], [0.22675293, 0.824311], [0.10639652, 0.061945], [0.05000494, -0.613998], [0.0234982, -0.243067]], [0, [0.0234982, 1.0]], [0, [0.01104221, 1.0]], [1, [60.1913049, 0.000757], [31.1792672, -0.006538], [16.24276866, 0.042902], [8.80021485, -0.164602], [5.33575038, 0.099387], [3.0325056, 0.217723], [1.63861968, 0.443669], [0.80258711, 0.32785], [0.40627833, 0.098641], [0.17382998, 0.011768], [0.07306386, -0.000703], [0.03071005, 0.000403]], [1, [60.1913049, -0.000118], [31.1792672, 0.001208], [16.24276866, -0.009122], [8.80021485, 0.038924], [5.33575038, -0.027473], [3.0325056, -0.058215], [1.63861968, -0.124371], [0.80258711, -0.107355], [0.40627833, 0.040741], [0.17382998, 0.350952], [0.07306386, 0.523294], [0.03071005, 0.234255]], [1, [60.1913049, -0.000211], [31.1792672, -0.002024], [16.24276866, 0.037014], [8.80021485, -0.235453], [5.33575038, 0.184384], [3.0325056, 0.808525], [1.63861968, 0.15119], [0.80258711, -0.861849], [0.40627833, -0.476701], [0.17382998, 0.542345], [0.07306386, 0.419535], [0.03071005, 0.008828]], [1, [0.03071005, 1.0]], [1, [0.01290798, 1.0]], [2, [52.56900844, 0.000307], [23.81654224, -0.007961], [11.32693504, 0.114253], [4.99176622, 0.164228], [2.46839125, 0.269996], [1.15974738, 0.320627], [0.53124091, 0.273188], [0.24220121, 0.161357], [0.11248934, 0.058244], [0.05201371, 0.009574]], [2, [52.56900844, 0.000227], [23.81654224, 0.005426], [11.32693504, -0.108395], [4.99176622, -0.200206], [2.46839125, -0.359104], [1.15974738, -0.096632], [0.53124091, 0.250081], [0.24220121, 0.404676], [0.11248934, 0.295662], [0.05201371, 0.077911]], [2, [0.05201371, 1.0]], [2, [0.02405051, 1.0]], [3, [2.379676, 1.0]], [3, [1.10033338, 1.0]]]}
ecp = {'Mn': [10, [[-1, [[], [[18.43432244, 15.0]], [[12.74175213, 31301.56494509], [11.67410914, -4576.3546318], [12.90376156, -26766.73507377], [4.97171871, -4.09339906]], [[8.79264819, 276.51483655]]]], [0, [[], [], [[13.56187871, 2771.78238977], [9.44812535, 12553.69429672], [10.76503846, 1886.79316638], [11.65345594, -9260.55332402], [8.48073002, -8943.95003535], [6.96707028, 1041.73211249]], []]], [1, [[], [], [[12.71342918, -23181.32761179], [18.03174513, 111577.22220216], [16.6827906, -42399.84416473], [13.18867124, 16025.79106608], [18.42861128, -76264.60573764], [12.90928974, 14270.47832347]], []]], [2, [[], [], [[8.13384228, -382.83904013], [14.28699222, 5676.99013005], [11.14406629, 35338.03440844], [11.37674978, -38881.44458388], [18.25818233, 3550.6602642], [17.73146307, -5317.47975296]], []]]]]}
CPU time:         3.68


******** <class 'pyscf.scf.rohf.ROHF'> flags ********
method = ROHF
initial guess = minao
damping factor = 0
level shift factor = 1000.0
DIIS = <class 'pyscf.scf.diis.CDIIS'>
DIIS start cycle = 1
DIIS space = 8
SCF tol = 1e-09
SCF gradient tol = None
max. SCF cycles = 50
direct_scf = True
direct_scf_tol = 1e-13
chkfile to save SCF result = /rc_scratch/bamu3429/tmpo6vL5A
max_memory 4000 MB (current use 163 MB)
num. doubly occ = 4  num. singly occ = 6
Set gradient conv threshold to 3.16228e-05
init E= -103.293359208875
  HOMO = 499.624222268949  LUMO = 999.855715651256
cycle= 1 E= -103.293359208875  delta_E= 2.84e-14  |g|= 1.94e-06  |ddm|= 1.04e-08
  HOMO = -0.375777730948489  LUMO = -0.144284348726326
Extra cycle  E= -103.293359208876  delta_E= -8.67e-13  |g|= 1.95e-07  |ddm|= 2.6e-06
converged SCF energy = -103.293359208876
**** MO energy ****
                Roothaan           | alpha              | beta
MO #1   energy= -4.32170012652571  | -4.54658170958563  | -4.0968185548678   occ= 2
MO #2   energy= -2.82994183549498  | -3.09844019983634  | -2.56144347115361  occ= 2
MO #3   energy= -2.82994183549497  | -3.09844019983634  | -2.56144347115361  occ= 2
MO #4   energy= -2.82994183549497  | -3.09844019983634  | -2.56144347115361  occ= 2
MO #5   energy= -0.439517822573215 | -0.940102650133361 | 0.0610670030882424 occ= 1
MO #6   energy= -0.439517822573213 | -0.940102650133358 | 0.0610670030882444 occ= 1
MO #7   energy= -0.439517822573184 | -0.94010265013335  | 0.0610670030882954 occ= 1
MO #8   energy= -0.439517822573183 | -0.940102650133347 | 0.0610670030882971 occ= 1
MO #9   energy= -0.439517822573183 | -0.940102650133349 | 0.0610670030882982 occ= 1
MO #10  energy= -0.375777730948489 | -0.550099973439509 | -0.201455472688681 occ= 1
MO #11  energy= -0.144284348726326 | -0.173453528978732 | -0.115115168473918 occ= 0
MO #12  energy= -0.144284348726326 | -0.173453528978732 | -0.115115168473919 occ= 0
MO #13  energy= -0.144284348726325 | -0.173453528978732 | -0.115115168473918 occ= 0
MO #14  energy= -0.0825094038187942 | -0.084701492553845 | -0.0803173091113668 occ= 0
MO #15  energy= -0.0546195322288262 | -0.0600036905138304 | -0.049235373943818 occ= 0
MO #16  energy= -0.0546195322288254 | -0.0600036905138299 | -0.0492353739438171 occ= 0
MO #17  energy= -0.054619532228823 | -0.0600036905138302 | -0.0492353739438178 occ= 0
MO #18  energy= -0.0480643128145387 | -0.0497637541436416 | -0.0463648714461496 occ= 0
MO #19  energy= -0.0480643128145376 | -0.0497637541436414 | -0.0463648714461494 occ= 0
MO #20  energy= -0.0480643128145366 | -0.0497637541436414 | -0.0463648714461494 occ= 0
MO #21  energy= -0.0480643128145353 | -0.0497637541436418 | -0.0463648714461499 occ= 0
MO #22  energy= -0.0480643128145348 | -0.0497637541436418 | -0.0463648714461499 occ= 0
MO #23  energy= 0.0423883248072789 | 0.0332048060718914 | 0.0515718520053911 occ= 0
MO #24  energy= 0.0539020103039439 | 0.0450170338927458 | 0.0627869779167465 occ= 0
MO #25  energy= 0.0539020103039439 | 0.0450170338927477 | 0.0627869779167488 occ= 0
MO #26  energy= 0.0539020103039454 | 0.045017033892748  | 0.0627869779167488 occ= 0
MO #27  energy= 0.0539020103039462 | 0.0450170338927492 | 0.0627869779167482 occ= 0
MO #28  energy= 0.0539020103039497 | 0.0450170338927525 | 0.0627869779167515 occ= 0
MO #29  energy= 0.0750641931089832 | 0.0504345887321194 | 0.0996937974858471 occ= 0
MO #30  energy= 0.0750641931089834 | 0.0504345887321194 | 0.0996937974858474 occ= 0
MO #31  energy= 0.0750641931089839 | 0.0504345887321206 | 0.099693797485848  occ= 0
MO #32  energy= 1.10755730752537   | 1.0030666946914    | 1.21204793101714   occ= 0
MO #33  energy= 1.10755730752537   | 1.0030666946914    | 1.21204793101714   occ= 0
MO #34  energy= 1.10755730752537   | 1.0030666946914    | 1.21204793101714   occ= 0
MO #35  energy= 1.10755730752544   | 1.00306669469146   | 1.21204793101721   occ= 0
MO #36  energy= 1.10755730752544   | 1.00306669469147   | 1.21204793101721   occ= 0
MO #37  energy= 1.50589149268198   | 1.42903507856377   | 1.58274788799831   occ= 0
MO #38  energy= 2.80367941726682   | 2.70903551674924   | 2.8983233177844    occ= 0
MO #39  energy= 2.80367941726682   | 2.70903551674924   | 2.8983233177844    occ= 0
MO #40  energy= 2.80367941726683   | 2.70903551674924   | 2.8983233177844    occ= 0
MO #41  energy= 2.88277782614438   | 2.77681316166653   | 2.98874249062222   occ= 0
MO #42  energy= 2.88277782614438   | 2.77681316166654   | 2.98874249062223   occ= 0
MO #43  energy= 2.88277782614438   | 2.77681316166653   | 2.98874249062223   occ= 0
MO #44  energy= 2.88277782614438   | 2.77681316166654   | 2.98874249062223   occ= 0
MO #45  energy= 2.88277782614438   | 2.77681316166654   | 2.98874249062223   occ= 0
MO #46  energy= 2.88277782614438   | 2.77681316166654   | 2.98874249062223   occ= 0
MO #47  energy= 2.88277782614438   | 2.77681316166654   | 2.98874249062223   occ= 0
MO #48  energy= 8.25960854269106   | 8.14314735693207   | 8.37606972845007   occ= 0
MO #49  energy= 8.25960854269109   | 8.1431473569321    | 8.37606972845011   occ= 0
MO #50  energy= 8.25960854269109   | 8.1431473569321    | 8.3760697284501    occ= 0
MO #51  energy= 8.25960854269111   | 8.14314735693211   | 8.37606972845012   occ= 0
MO #52  energy= 8.25960854269111   | 8.14314735693211   | 8.37606972845011   occ= 0
MO #53  energy= 8.25960854269112   | 8.14314735693213   | 8.37606972845014   occ= 0
MO #54  energy= 8.25960854269112   | 8.14314735693212   | 8.37606972845012   occ= 0
 ** Mulliken pop on meta-lowdin orthogonal AOs  **
 ** Mulliken pop  **
pop of  0Mn 3s        1.99998
pop of  0Mn 4s        0.96226
pop of  0Mn 5s        0.01295
pop of  0Mn 6s        0.01895
pop of  0Mn 7s        0.00586
pop of  0Mn 3px       1.99990
pop of  0Mn 3py       1.99990
pop of  0Mn 3pz       1.99990
pop of  0Mn 4px       0.00010
pop of  0Mn 4py       0.00010
pop of  0Mn 4pz       0.00010
pop of  0Mn 5px       0.00000
pop of  0Mn 5py       0.00000
pop of  0Mn 5pz       0.00000
pop of  0Mn 6px       0.00000
pop of  0Mn 6py       0.00000
pop of  0Mn 6pz       0.00000
pop of  0Mn 7px       0.00000
pop of  0Mn 7py       0.00000
pop of  0Mn 7pz       0.00000
pop of  0Mn 3dxy      0.99572
pop of  0Mn 3dyz      0.99572
pop of  0Mn 3dz^2     0.99572
pop of  0Mn 3dxz      0.99572
pop of  0Mn 3dx2-y2    0.99572
pop of  0Mn 4dxy      0.00287
pop of  0Mn 4dyz      0.00287
pop of  0Mn 4dz^2     0.00287
pop of  0Mn 4dxz      0.00287
pop of  0Mn 4dx2-y2    0.00287
pop of  0Mn 5dxy      0.00138
pop of  0Mn 5dyz      0.00138
pop of  0Mn 5dz^2     0.00138
pop of  0Mn 5dxz      0.00138
pop of  0Mn 5dx2-y2    0.00138
pop of  0Mn 6dxy      0.00003
pop of  0Mn 6dyz      0.00003
pop of  0Mn 6dz^2     0.00003
pop of  0Mn 6dxz      0.00003
pop of  0Mn 6dx2-y2    0.00003
pop of  0Mn 4fy^3     0.00000
pop of  0Mn 4fxyz     0.00000
pop of  0Mn 4fyz^2    0.00000
pop of  0Mn 4fz^3     0.00000
pop of  0Mn 4fxz^2    0.00000
pop of  0Mn 4fzx^2    0.00000
pop of  0Mn 4fx^3     0.00000
pop of  0Mn 5fy^3     0.00000
pop of  0Mn 5fxyz     0.00000
pop of  0Mn 5fyz^2    0.00000
pop of  0Mn 5fz^3     0.00000
pop of  0Mn 5fxz^2    0.00000
pop of  0Mn 5fzx^2    0.00000
pop of  0Mn 5fx^3     0.00000
 ** Mulliken atomic charges  **
charge of  0Mn =      1.00000

******** <class 'pyscf.mcscf.mc1step.CASSCF'> flags ********
CAS (6e+0e, 6o), ncore = 4, nvir = 44
max_cycle_macro = 50
max_cycle_micro = 4
conv_tol = 1e-07
conv_tol_grad = None
orbital rotation max_stepsize = 0.02
augmented hessian ah_max_cycle = 30
augmented hessian ah_conv_tol = 1e-12
augmented hessian ah_linear dependence = 1e-14
augmented hessian ah_level shift = 0
augmented hessian ah_start_tol = 2.5
augmented hessian ah_start_cycle = 3
augmented hessian ah_grad_trust_region = 3
kf_trust_region = 3
kf_interval = 4
ci_response_space = 4
ci_grad_trust_region = 3
with_dep4 0
natorb = False
canonicalization = True
sorting_mo_energy = False
chkfile = ./scratch/193272/tmp4rzaY2
max_memory 4000 MB (current use 219 MB)
internal_rotation = False

******** SHCI flags ********
executable             = /home/bamu3429/softwares/dice/Dice
mpiprefix              = srun -n20
scratchDirectory       = ./scratch/193272
integralFile           = ./FCIDUMP
configFile             = ./input.dat
outputFile             = ./output.dat
maxIter                = 6
sweep_iter             = []
sweep_epsilon          = []
nPTiter                = 0
Stochastic             = True
fullrestart            = False
restart                = False
num_thrds              = 12
memory                 = None

CASCI E = -103.293359208878  S^2 = 12.0000000
Set conv_tol_grad to 0.000316228
macro iter 1 (1 JK  1 micro), CASSCF E = -103.293359208878  dE = 0  S^2 = 12.0000000
               |grad[o]|=1.95e-07  |grad[c]|= None  |ddm|=    0
1-step CASSCF converged in 1 macro (1 JK 1 micro) steps
CASSCF canonicalization
CASSCF energy = -103.293359208878


--------------------------------------------------
                 ICMPSPT CALCULATION              
--------------------------------------------------

Perturbation type: MRLCC
With fully internally contracted scheme
With third order correction

Preparing necessary RDMs
......production of RDMs took       9.23 sec
Reading binary 4RDM from DICE
......reading the RDM took          1.14 sec

(GOOD) Trace 4RDM:    360.0 =    6*    5*    4*    3
(GOOD) Trace 3RDM:    120.0 =    6*    5*    4
(GOOD) Trace 2RDM:     30.0 =    6*    5
(GOOD) Trace 1RDM:      6.0 =    6

Producing the integrals
......production of INT took      28.18 sec

Energy_core =  -88.44736049
Energy      = -103.29335921

WARNING: Have to use natural orbitals from CAASCF
         offdiagonal elements:    0.54052240

Basic ingredients written to int/
......savings of INGREDIENTS took      22.16 sec

Second-order:
perturber CCVV --        -0.070254756
perturber CCAV --        -0.041899327
perturber ACVV --        -0.103227127
perturber CCAA --        -0.028286579
perturber AAVV --        -0.077060571
perturber CAAV --        -0.101470808
perturber AAAV --        -0.000000000
perturber AAAC --        -0.000000000
Total:                   -0.422199167

Third-order:              0.000589101

Total PT       --        -0.421610066

