 &FCI NORB=6 ,NELEC=8 ,MS2=4,
  ORBSYM=1,1,1,1,1,1,
  ISYM=1,
 &END
  8.892441649206e-01    1  1  1  1
  7.701607324545e-03    2  1  2  1
  3.594779128710e-01    2  2  1  1
  2.809492632108e-01    2  2  2  2
 -1.417372975224e-03    3  1  2  1
  4.039824979709e-02    3  1  3  1
  1.941067280726e-03    3  2  1  1
  1.124487302280e-03    3  2  2  2
  7.181757714927e-03    3  2  3  2
  8.273669300497e-01    3  3  1  1
  3.615584131408e-01    3  3  2  2
  4.759424503186e-03    3  3  3  2
  9.287683027472e-01    3  3  3  3
  3.515954711752e-02    4  1  4  1
  1.075172620775e-03    4  2  4  1
  7.137921106484e-03    4  2  4  2
  9.270843120483e-03    4  3  4  1
  5.583307977082e-04    4  3  4  2
  2.540287685051e-02    4  3  4  3
  8.370847026194e-01    4  4  1  1
  1.073190207030e-03    4  4  2  1
  3.613481622407e-01    4  4  2  2
 -1.842699819700e-02    4  4  3  1
  4.117671286986e-03    4  4  3  2
  8.768588579300e-01    4  4  3  3
  9.264666320365e-01    4  4  4  4
  2.386985725673e-05    5  1  4  2
  2.058215561478e-04    5  1  4  3
  3.515954711750e-02    5  1  5  1
  2.386985725670e-05    5  2  4  1
 -1.075172620775e-03    5  2  5  1
  7.137921106484e-03    5  2  5  2
  2.058215561478e-04    5  3  4  1
 -9.270843120499e-03    5  3  5  1
  5.583307977099e-04    5  3  5  2
  2.540287685054e-02    5  3  5  3
  2.382584578162e-05    5  4  2  1
 -4.090969283752e-04    5  4  3  1
  3.610930888367e-02    5  4  5  4
  8.370847026194e-01    5  5  1  1
 -1.073190207039e-03    5  5  2  1
  3.613481622407e-01    5  5  2  2
  1.842699819703e-02    5  5  3  1
  4.117671286986e-03    5  5  3  2
  8.768588579300e-01    5  5  3  3
  8.542480142691e-01    5  5  4  4
  9.264666320365e-01    5  5  5  5
  1.928991098575e-02    6  1  6  1
 -1.544924646170e-05    6  2  4  4
  6.958821172446e-04    6  2  5  4
  1.544924645965e-05    6  2  5  5
  7.055116774797e-03    6  2  6  2
  4.133797008408e-04    6  3  4  4
 -1.861990759091e-02    6  3  5  4
 -4.133797008408e-04    6  3  5  5
 -7.637806209081e-04    6  3  6  2
  4.127963441007e-02    6  3  6  3
 -1.991147387944e-05    6  4  4  2
 -2.080920373303e-04    6  4  4  3
 -1.594968226119e-02    6  4  5  1
  8.968747204547e-04    6  4  5  2
  9.373112655556e-03    6  4  5  3
  3.594443060114e-02    6  4  6  4
  1.594968226120e-02    6  5  4  1
  8.968747204541e-04    6  5  4  2
  9.373112655533e-03    6  5  4  3
  1.991147387934e-05    6  5  5  2
  2.080920373303e-04    6  5  5  3
  3.594443060114e-02    6  5  6  5
  8.656433034474e-01    6  6  1  1
  3.606614697059e-01    6  6  2  2
  2.434775003889e-03    6  6  3  2
  8.413079188106e-01    6  6  3  3
  8.512273048298e-01    6  6  4  4
  8.512273048298e-01    6  6  5  5
  9.197946134886e-01    6  6  6  6
 -5.453571021194e+00    1  1  0  0
 -2.686262609440e+00    2  2  0  0
 -2.185529927911e-02    3  2  0  0
 -5.542207368593e+00    3  3  0  0
 -5.537560910266e+00    4  4  0  0
 -5.537560910266e+00    5  5  0  0
 -5.522486441211e+00    6  6  0  0
   -101.630360533381   0  0  0  0
