#INFO: **** input file is /projects/bamu3429/BENCHMARK/fresh_atoms/MRPT/atoms/Fe_0/mrpt.py ****
import json
from pyscf import gto,scf,mcscf, fci, lo, ci, cc
from pyscf.scf import ROHF, UHF,ROKS
import numpy as np
import pandas as pd

# THIS IS WERE IT STARTS ====================================

df=json.load(open("../../trail.json"))

spins={'Sc':1, 'Ti':2, 'V':3, 'Cr':6, 'Mn':5, 'Fe':4, 'Cu':1}

nd={'Sc':(1,0), 'Ti':(2,0), 'V':(3,0), 'Cr':(5,0), 'Mn':(5,0), 'Fe':(5,1), 'Cu':(5,5)}

cas={'Sc':3, 'Ti':4, 'V':5, 'Cr':6, 'Mn':7, 'Fe':8, 'Cu':11}

datacsv={}
for nm in ['atom','charge','method','basis','pseudopotential','hf',
           'totalenergy','totalenergy-stocherr','totalenergy-syserr']:
  datacsv[nm]=[]

basis='vdz'
el='Fe'
charge=0

mol=gto.Mole()
mol.ecp={}
mol.basis={}
mol.ecp[el]=gto.basis.parse_ecp(df[el]['ecp'])
mol.basis[el]=gto.basis.parse(df[el][basis])
mol.charge=charge
if el == 'Cr' or el == 'Cu':
  mol.spin=spins[el]-charge
else:
  mol.spin=spins[el]+charge
mol.build(atom="%s 0. 0. 0."%el,verbose=4)

m=ROHF(mol)
m.level_shift=1000.0
dm=m.from_chk("../../../HF/atoms/"+el+basis+str(charge)+".chk")
hf=m.kernel(dm)
m.analyze()

from pyscf.shciscf import shci
mc = shci.SHCISCF(m, 6, cas[el]-charge)
#mc.fcisolver.conv_tol = 1e-14
mc.fcisolver.mpiprefix="mpirun -np 28"
mc.fcisolver.num_thrds=12
mc.verbose = 4
cas=mc.kernel()[0]
 
from pyscf.icmpspt import icmpspt
pt=icmpspt.icmpspt(mc,rdmM=500, PTM=1000,\
                          pttype="MRLCC",\
                          third_order=True,\
                          fully_ic=True,\
                          do_dm4=True)

datacsv['atom'].append(el)
datacsv['charge'].append(charge)
datacsv['method'].append('MRPT')
datacsv['basis'].append(basis)
datacsv['pseudopotential'].append('trail')
datacsv['hf'].append(hf)
datacsv['totalenergy'].append(cas+pt)
datacsv['totalenergy-stocherr'].append(0.0)
datacsv['totalenergy-syserr'].append(0.0)
pd.DataFrame(datacsv).to_csv(el+".csv",index=False)

#INFO: ******************** input file end ********************


System: ('Linux', 'bnode0308.rc.int.colorado.edu', '3.10.0-514.41.1.el7.x86_64', '#1 SMP Wed Jan 17 10:26:16 EST 2018', 'x86_64', 'x86_64')  Threads 1
Python 2.7.11 (default, Mar 22 2016, 01:42:54) 
[GCC Intel(R) C++ gcc 4.8 mode]
numpy 1.11.1  scipy 0.17.1
Date: Fri Mar 23 16:27:09 2018
PySCF version 1.4
PySCF path  /projects/bamu3429/softwares/pyscf_uptodate/pyscf
GIT ORIG_HEAD e2292e6edec2b0e0024c21b81de03db1d7bd4121
GIT HEAD      ref: refs/heads/master
GIT master branch  f3591ef22170896a4cdc2aadaa6f5da388ffcadb

[INPUT] VERBOSE 4
[INPUT] num atoms = 1
[INPUT] num electrons = 16
[INPUT] charge = 0
[INPUT] spin (= nelec alpha-beta = 2S) = 4
[INPUT] symmetry False subgroup None
[INPUT]  1 Fe     0.000000000000   0.000000000000   0.000000000000 AA    0.000000000000   0.000000000000   0.000000000000 Bohr
[INPUT] ---------------- BASIS SET ---------------- 
[INPUT] l, kappa, [nprim/nctr], expnt,             c_1 c_2 ...
[INPUT] Fe
[INPUT] 0    0    [12   /1   ]  41.79315189       0.013363
                                21.4479766        -0.225831
                                13.50597996       1.092302
                                9.47978339        -1.379238
                                4.48116767        0.183004
                                2.00533715        0.377557
                                1.21557711        0.591529
                                0.52042955        0.236703
                                0.24120153        -0.029854
                                0.11142434        0.02048
                                0.05213724        -0.006828
                                0.02419858        0.002604
[INPUT] 0    0    [12   /1   ]  41.79315189       -0.002034
                                21.4479766        0.04181
                                13.50597996       -0.22265
                                9.47978339        0.296462
                                4.48116767        -0.039261
                                2.00533715        -0.090727
                                1.21557711        -0.230375
                                0.52042955        -0.197211
                                0.24120153        0.111234
                                0.11142434        0.439139
                                0.05213724        0.516418
                                0.02419858        0.126845
[INPUT] 0    0    [12   /1   ]  41.79315189       -0.004323
                                21.4479766        0.132016
                                13.50597996       -0.841007
                                9.47978339        1.270608
                                4.48116767        -0.357855
                                2.00533715        -1.172638
                                1.21557711        0.080918
                                0.52042955        0.564238
                                0.24120153        0.803759
                                0.11142434        0.166439
                                0.05213724        -0.599817
                                0.02419858        -0.320989
[INPUT] 0    0    [1    /1   ]  0.02419858           1
[INPUT] 0    0    [1    /1   ]  0.01123134           1
[INPUT] 1    0    [12   /1   ]  66.19105244       0.00032
                                34.58074578       -0.003142
                                17.77781378       0.029707
                                9.38371315        -0.152873
                                5.85185491        0.094627
                                3.39352009        0.227547
                                1.80084269        0.448024
                                0.88349057        0.318306
                                0.45376195        0.097682
                                0.18864625        0.012314
                                0.07756623        -0.001004
                                0.03189313        0.000474
[INPUT] 1    0    [12   /1   ]  66.19105244       -1.8e-05
                                34.58074578       0.000416
                                17.77781378       -0.005911
                                9.38371315        0.03555
                                5.85185491        -0.025962
                                3.39352009        -0.059781
                                1.80084269        -0.122371
                                0.88349057        -0.102075
                                0.45376195        0.039881
                                0.18864625        0.346137
                                0.07756623        0.528115
                                0.03189313        0.237416
[INPUT] 1    0    [12   /1   ]  66.19105244       -0.000834
                                34.58074578       0.002604
                                17.77781378       0.016549
                                9.38371315        -0.211504
                                5.85185491        0.182022
                                3.39352009        0.789997
                                1.80084269        0.110593
                                0.88349057        -0.853215
                                0.45376195        -0.426908
                                0.18864625        0.584503
                                0.07756623        0.418096
                                0.03189313        0.004159
[INPUT] 1    0    [1    /1   ]  0.03189313           1
[INPUT] 1    0    [1    /1   ]  0.01311358           1
[INPUT] 2    0    [10   /1   ]  58.21685909       0.000311
                                24.96806153       -0.010386
                                12.44413704       0.126915
                                5.48395408        0.166806
                                2.79137309        0.262721
                                1.34407118        0.316542
                                0.61230651        0.280074
                                0.27095461        0.158069
                                0.12811374        0.049028
                                0.05904405        0.008369
[INPUT] 2    0    [10   /1   ]  58.21685909       0.000264
                                24.96806153       0.008003
                                12.44413704       -0.131894
                                5.48395408        -0.228203
                                2.79137309        -0.382561
                                1.34407118        -0.063105
                                0.61230651        0.332607
                                0.27095461        0.402603
                                0.12811374        0.213988
                                0.05904405        0.04923
[INPUT] 2    0    [1    /1   ]  0.05904405           1
[INPUT] 2    0    [1    /1   ]  0.02721175           1
[INPUT] 3    0    [1    /1   ]  2.703381             1
[INPUT] 3    0    [1    /1   ]  1.2459129            1
nuclear repulsion = 0
number of shells = 16
number of NR pGTOs = 276
number of NR cGTOs = 54
basis = {'Fe': [[0, [41.79315189, 0.013363], [21.4479766, -0.225831], [13.50597996, 1.092302], [9.47978339, -1.379238], [4.48116767, 0.183004], [2.00533715, 0.377557], [1.21557711, 0.591529], [0.52042955, 0.236703], [0.24120153, -0.029854], [0.11142434, 0.02048], [0.05213724, -0.006828], [0.02419858, 0.002604]], [0, [41.79315189, -0.002034], [21.4479766, 0.04181], [13.50597996, -0.22265], [9.47978339, 0.296462], [4.48116767, -0.039261], [2.00533715, -0.090727], [1.21557711, -0.230375], [0.52042955, -0.197211], [0.24120153, 0.111234], [0.11142434, 0.439139], [0.05213724, 0.516418], [0.02419858, 0.126845]], [0, [41.79315189, -0.004323], [21.4479766, 0.132016], [13.50597996, -0.841007], [9.47978339, 1.270608], [4.48116767, -0.357855], [2.00533715, -1.172638], [1.21557711, 0.080918], [0.52042955, 0.564238], [0.24120153, 0.803759], [0.11142434, 0.166439], [0.05213724, -0.599817], [0.02419858, -0.320989]], [0, [0.02419858, 1.0]], [0, [0.01123134, 1.0]], [1, [66.19105244, 0.00032], [34.58074578, -0.003142], [17.77781378, 0.029707], [9.38371315, -0.152873], [5.85185491, 0.094627], [3.39352009, 0.227547], [1.80084269, 0.448024], [0.88349057, 0.318306], [0.45376195, 0.097682], [0.18864625, 0.012314], [0.07756623, -0.001004], [0.03189313, 0.000474]], [1, [66.19105244, -1.8e-05], [34.58074578, 0.000416], [17.77781378, -0.005911], [9.38371315, 0.03555], [5.85185491, -0.025962], [3.39352009, -0.059781], [1.80084269, -0.122371], [0.88349057, -0.102075], [0.45376195, 0.039881], [0.18864625, 0.346137], [0.07756623, 0.528115], [0.03189313, 0.237416]], [1, [66.19105244, -0.000834], [34.58074578, 0.002604], [17.77781378, 0.016549], [9.38371315, -0.211504], [5.85185491, 0.182022], [3.39352009, 0.789997], [1.80084269, 0.110593], [0.88349057, -0.853215], [0.45376195, -0.426908], [0.18864625, 0.584503], [0.07756623, 0.418096], [0.03189313, 0.004159]], [1, [0.03189313, 1.0]], [1, [0.01311358, 1.0]], [2, [58.21685909, 0.000311], [24.96806153, -0.010386], [12.44413704, 0.126915], [5.48395408, 0.166806], [2.79137309, 0.262721], [1.34407118, 0.316542], [0.61230651, 0.280074], [0.27095461, 0.158069], [0.12811374, 0.049028], [0.05904405, 0.008369]], [2, [58.21685909, 0.000264], [24.96806153, 0.008003], [12.44413704, -0.131894], [5.48395408, -0.228203], [2.79137309, -0.382561], [1.34407118, -0.063105], [0.61230651, 0.332607], [0.27095461, 0.402603], [0.12811374, 0.213988], [0.05904405, 0.04923]], [2, [0.05904405, 1.0]], [2, [0.02721175, 1.0]], [3, [2.703381, 1.0]], [3, [1.2459129, 1.0]]]}
ecp = {'Fe': [10, [[-1, [[], [[16.90683491, 16.0]], [[18.40258134, 26847.81569895], [6.30300831, -133.54888707], [18.42848726, -26765.4049232], [18.43432023, 1.00742417]], [[7.01300654, 270.50935856]]]], [0, [[], [], [[9.62463353, 20308.8999348], [9.1270955, -17595.21707731], [7.5416384, 1884.69012383], [12.70900949, -4483.50209856], [8.14863339, -1094.38597968], [16.27611739, 1032.95376659]], []]], [1, [[], [], [[11.36514719, -905.00711112], [14.56762424, 34640.9358259], [15.05861359, -42299.94223895], [17.41337089, 10633.68808757], [18.3746752, -5844.19723669], [17.04734437, 3803.80414779]], []]], [2, [[], [], [[10.13935738, -11031.18647055], [13.45796076, 16711.37502047], [10.97387824, 37989.95033676], [11.92919033, -41782.92514683], [17.7123012, 3812.58339812], [17.32108913, -5718.00854971]], []]]]]}
CPU time:         0.63


******** <class 'pyscf.scf.rohf.ROHF'> flags ********
method = ROHF
initial guess = minao
damping factor = 0
level shift factor = 1000.0
DIIS = <class 'pyscf.scf.diis.CDIIS'>
DIIS start cycle = 1
DIIS space = 8
SCF tol = 1e-09
SCF gradient tol = None
max. SCF cycles = 50
direct_scf = True
direct_scf_tol = 1e-13
chkfile to save SCF result = /projects/bamu3429/BENCHMARK/fresh_atoms/MRPT/atoms/Fe_0/tmp6Ur0yK
max_memory 4000 MB (current use 81 MB)
num. doubly occ = 6  num. singly occ = 4
Set gradient conv threshold to 3.16228e-05
init E= -123.039825139213
  HOMO = 499.850853855037  LUMO = 1000.01973789585
cycle= 1 E= -123.039825139213  delta_E= -1.42e-13  |g|= 5.7e-06  |ddm|= 1.71e-08
  HOMO = -0.149146144685455  LUMO = 0.0197378958582787
Extra cycle  E= -123.039825139209  delta_E= 3.52e-12  |g|= 3.83e-06  |ddm|= 2.29e-05
converged SCF energy = -123.039825139209
**** MO energy ****
                Roothaan           | alpha              | beta
MO #1   energy= -4.42381903299363  | -4.60946606705223  | -4.23817199484928  occ= 2
MO #2   energy= -2.80695431053549  | -3.07856283179777  | -2.5353457892732   occ= 2
MO #3   energy= -2.7980348813171   | -2.99968456532314  | -2.59638519731107  occ= 2
MO #4   energy= -2.79803488131709  | -2.99968456532301  | -2.59638519731116  occ= 2
MO #5   energy= -0.550896585979395 | -0.615900233373658 | -0.485892938585129 occ= 2
MO #6   energy= -0.263399304393002 | -0.277655586755125 | -0.249142892553484 occ= 2
MO #7   energy= -0.198569382892122 | -0.708996440182556 | 0.311857312911613  occ= 1
MO #8   energy= -0.186153311056867 | -0.698114778244744 | 0.325808311497733  occ= 1
MO #9   energy= -0.186153311056804 | -0.69811477824469  | 0.325808311497804  occ= 1
MO #10  energy= -0.149146144685455 | -0.665627589925526 | 0.367335429201145  occ= 1
MO #11  energy= 0.0197378958582787 | 0.0183585841638809 | 0.0211172075526757 occ= 0
MO #12  energy= 0.0210278767268919 | 0.0201291364691744 | 0.0219266169846098 occ= 0
MO #13  energy= 0.0210278767268953 | 0.0201291364691768 | 0.021926616984611  occ= 0
MO #14  energy= 0.0235927747390368 | 0.0231001281314344 | 0.0240854220482061 occ= 0
MO #15  energy= 0.064102738360962  | 0.0605826301265494 | 0.0676228465953727 occ= 0
MO #16  energy= 0.0671795146737988 | 0.0644620784766741 | 0.0698969508709228 occ= 0
MO #17  energy= 0.0671795146738013 | 0.0644620784766741 | 0.0698969508709244 occ= 0
MO #18  energy= 0.0829997590043108 | 0.0828436481409472 | 0.0831558453261911 occ= 0
MO #19  energy= 0.0830862370830599 | 0.0829257213470648 | 0.0832467555037616 occ= 0
MO #20  energy= 0.0830862370830604 | 0.0829257213470651 | 0.0832467555037619 occ= 0
MO #21  energy= 0.0833350233332259 | 0.0832794892015389 | 0.0833905574649114 occ= 0
MO #22  energy= 0.0833532571878109 | 0.0831801804440012 | 0.0835263449568018 occ= 0
MO #23  energy= 0.196424443748844  | 0.191051286362225  | 0.201797617991115  occ= 0
MO #24  energy= 0.25156632773599   | 0.246585254769479  | 0.256547343992658  occ= 0
MO #25  energy= 0.252378155148565  | 0.247244949564235  | 0.257511327821134  occ= 0
MO #26  energy= 0.252378155148571  | 0.24724494956424   | 0.25751132782114   occ= 0
MO #27  energy= 0.252862684340994  | 0.25109752928185   | 0.254627839400138  occ= 0
MO #28  energy= 0.254991480737701  | 0.24943435735911   | 0.260548597293865  occ= 0
MO #29  energy= 0.273122684431983  | 0.257312044159315  | 0.288933324704651  occ= 0
MO #30  energy= 0.281251425177756  | 0.26869471773424   | 0.293808132621269  occ= 0
MO #31  energy= 0.281251425177766  | 0.268694717734254  | 0.29380813262128   occ= 0
MO #32  energy= 1.71762569375658   | 1.68797239767211   | 1.74727898984104   occ= 0
MO #33  energy= 1.7272028373318    | 1.62574330105064   | 1.82866274022904   occ= 0
MO #34  energy= 1.73748593691455   | 1.63585948486633   | 1.83911226382311   occ= 0
MO #35  energy= 1.73748593691459   | 1.63585948486636   | 1.83911226382316   occ= 0
MO #36  energy= 1.76140738630031   | 1.65627659794425   | 1.86653804180708   occ= 0
MO #37  energy= 1.84380534456203   | 1.79334115975218   | 1.89426945437345   occ= 0
MO #38  energy= 3.45025792890989   | 3.35948861778128   | 3.5410272400385    occ= 0
MO #39  energy= 3.48486003356301   | 3.41418785817842   | 3.55553220894762   occ= 0
MO #40  energy= 3.48486003356307   | 3.41418785817849   | 3.55553220894765   occ= 0
MO #41  energy= 3.58025234712745   | 3.48071175615277   | 3.67979293810213   occ= 0
MO #42  energy= 3.58115604275769   | 3.49456207659373   | 3.66775000892165   occ= 0
MO #43  energy= 3.58115604275772   | 3.49456207659382   | 3.66775000892162   occ= 0
MO #44  energy= 3.58176406245135   | 3.50701906004118   | 3.65650906486153   occ= 0
MO #45  energy= 3.59316518703991   | 3.48750846688894   | 3.69882190719089   occ= 0
MO #46  energy= 3.59597651365417   | 3.51909654689073   | 3.67285648041761   occ= 0
MO #47  energy= 3.59597651365417   | 3.51909654689072   | 3.67285648041762   occ= 0
MO #48  energy= 9.63724428256205   | 9.5260244181145    | 9.7484641470096    occ= 0
MO #49  energy= 9.64131935954455   | 9.53291741860707   | 9.74972130048203   occ= 0
MO #50  energy= 9.64131935954459   | 9.53291741860712   | 9.74972130048207   occ= 0
MO #51  energy= 9.65207444043887   | 9.56810268000425   | 9.73604620087353   occ= 0
MO #52  energy= 9.65500225789894   | 9.5375653273841    | 9.77243918841383   occ= 0
MO #53  energy= 9.6730325029969    | 9.5968914484953    | 9.7491735574985    occ= 0
MO #54  energy= 9.6730325029969    | 9.59689144849532   | 9.74917355749849   occ= 0
 ** Mulliken pop on meta-lowdin orthogonal AOs  **
 ** Mulliken pop  **
pop of  0Fe 3s        1.99996
pop of  0Fe 4s        1.99782
pop of  0Fe 5s        0.00066
pop of  0Fe 6s        0.00078
pop of  0Fe 7s        0.00029
pop of  0Fe 3px       1.99988
pop of  0Fe 3py       1.99988
pop of  0Fe 3pz       1.99986
pop of  0Fe 4px       0.00004
pop of  0Fe 4py       0.00004
pop of  0Fe 4pz       0.00010
pop of  0Fe 5px       0.00001
pop of  0Fe 5py       0.00001
pop of  0Fe 5pz       0.00001
pop of  0Fe 6px       0.00000
pop of  0Fe 6py       0.00000
pop of  0Fe 6pz       0.00000
pop of  0Fe 7px       0.00000
pop of  0Fe 7py       0.00000
pop of  0Fe 7pz       0.00000
pop of  0Fe 3dxy      1.99993
pop of  0Fe 3dyz      0.99775
pop of  0Fe 3dz^2     0.99768
pop of  0Fe 3dxz      0.99775
pop of  0Fe 3dx2-y2    0.99840
pop of  0Fe 4dxy      0.00001
pop of  0Fe 4dyz      0.00151
pop of  0Fe 4dz^2     0.00186
pop of  0Fe 4dxz      0.00151
pop of  0Fe 4dx2-y2    0.00104
pop of  0Fe 5dxy      0.00005
pop of  0Fe 5dyz      0.00073
pop of  0Fe 5dz^2     0.00094
pop of  0Fe 5dxz      0.00073
pop of  0Fe 5dx2-y2    0.00055
pop of  0Fe 6dxy      0.00000
pop of  0Fe 6dyz      0.00001
pop of  0Fe 6dz^2     0.00001
pop of  0Fe 6dxz      0.00001
pop of  0Fe 6dx2-y2    0.00001
pop of  0Fe 4fy^3     0.00003
pop of  0Fe 4fxyz     0.00000
pop of  0Fe 4fyz^2    0.00001
pop of  0Fe 4fz^3     0.00002
pop of  0Fe 4fxz^2    0.00001
pop of  0Fe 4fzx^2    0.00000
pop of  0Fe 4fx^3     0.00003
pop of  0Fe 5fy^3     0.00003
pop of  0Fe 5fxyz     0.00000
pop of  0Fe 5fyz^2    0.00000
pop of  0Fe 5fz^3     0.00001
pop of  0Fe 5fxz^2    0.00000
pop of  0Fe 5fzx^2    0.00000
pop of  0Fe 5fx^3     0.00003
 ** Mulliken atomic charges  **
charge of  0Fe =      0.00000

******** <class 'pyscf.mcscf.mc1step.CASSCF'> flags ********
CAS (6e+2e, 6o), ncore = 4, nvir = 44
max_cycle_macro = 50
max_cycle_micro = 4
conv_tol = 1e-07
conv_tol_grad = None
orbital rotation max_stepsize = 0.02
augmented hessian ah_max_cycle = 30
augmented hessian ah_conv_tol = 1e-12
augmented hessian ah_linear dependence = 1e-14
augmented hessian ah_level shift = 0
augmented hessian ah_start_tol = 2.5
augmented hessian ah_start_cycle = 3
augmented hessian ah_grad_trust_region = 3
kf_trust_region = 3
kf_interval = 4
ci_response_space = 4
ci_grad_trust_region = 3
with_dep4 0
natorb = False
canonicalization = True
chkfile = ./scratch/87803/tmpvBedrx
max_memory 4000 MB (current use 97 MB)
internal_rotation = False

******** SHCI flags ********
executable             = /home/bamu3429/softwares/dice/Dice
mpiprefix              = mpirun -np 28
scratchDirectory       = ./scratch/87803
integralFile           = ./FCIDUMP
configFile             = ./input.dat
outputFile             = ./output.dat
maxIter                = 6
sweep_iter             = []
sweep_epsilon          = []
nPTiter                = 0
Stochastic             = True
fullrestart            = False
restart                = False
num_thrds              = 12
memory                 = None

CASCI E = -123.039825139209  S^2 = 6.0000000
Set conv_tol_grad to 0.000316228
macro iter 1 (1 JK  1 micro), CASSCF E = -123.039825139209  dE = 0  S^2 = 6.0000000
               |grad[o]|=3.4e-06  |grad[c]|= None  |ddm|=    0
1-step CASSCF converged in 1 macro (1 JK 1 micro) steps
CASSCF canonicalization
CASSCF energy = -123.039825139209


--------------------------------------------------
                 ICMPSPT CALCULATION              
--------------------------------------------------

Perturbation type: MRLCC
With fully internally contracted scheme
With third order correction

Preparing necessary RDMs
......production of RDMs took       0.44 sec
Reading binary 4RDM from DICE
......reading the RDM took          1.01 sec

(GOOD) Trace 4RDM:   1680.0 =    8*    7*    6*    5
(GOOD) Trace 3RDM:    336.0 =    8*    7*    6
(GOOD) Trace 2RDM:     56.0 =    8*    7
(GOOD) Trace 1RDM:      8.0 =    8

Producing the integrals
......production of INT took      86.71 sec

Energy_core =  -101.630360533
Energy      =  -123.039825139

WARNING: Have to use natural orbitals from CAASCF
         offdiagonal elements: 0.774950154654

Basic ingredients written to int/
......savings of INGREDIENTS took      15.00 sec

Second-order:
perturber CCVV --        -0.073346692
perturber CCAV --        -0.032936060
perturber ACVV --        -0.131781364
perturber CCAA --        -0.017558908
perturber AAVV --        -0.169853514
perturber CAAV --        -0.093119088
perturber AAAV --        -0.004901431
perturber AAAC --        -0.000000000
Total:                   -0.523497059

Third-order:              0.000692927

Total PT       --        -0.522804132

