 &FCI NORB=6 ,NELEC=5 ,MS2=3,
  ORBSYM=1,1,1,1,1,1,
  ISYM=1,
 &END
  2.539948720109e-01    1  1  1  1
  3.714162142103e-11    2  1  1  1
  7.987238852347e-03    2  1  2  1
  3.223637733159e-01    2  2  1  1
  2.771679508963e-10    2  2  2  1
  7.371028802682e-01    2  2  2  2
  1.918936843898e-04    3  1  1  1
  6.717916415090e-12    3  1  2  1
  1.280067198591e-03    3  1  2  2
  7.608474196107e-03    3  1  3  1
  1.858671775642e-11    3  2  1  1
 -2.178083093777e-03    3  2  2  1
  2.701767636822e-12    3  2  2  2
 -8.808477764978e-11    3  2  3  1
  2.917021362046e-02    3  2  3  2
  3.216740629442e-01    3  3  1  1
 -2.606009472912e-12    3  3  2  1
  6.798768791900e-01    3  3  2  2
  3.867624445436e-03    3  3  3  1
  4.288221372979e-11    3  3  3  2
  7.377256182101e-01    3  3  3  3
 -1.820758093261e-11    4  1  1  1
  1.082452367232e-12    4  1  2  1
 -3.126053910769e-10    4  1  2  2
  5.797505783140e-12    4  1  3  1
 -2.281929960817e-11    4  1  3  2
 -3.087719411256e-10    4  1  3  3
  7.645783897609e-03    4  1  4  1
  2.630235065113e-12    4  2  1  1
 -2.430035180083e-11    4  2  2  1
  5.621452857343e-12    4  2  2  2
 -1.983209228816e-11    4  2  3  1
  2.839049967240e-11    4  2  3  2
 -2.022837622837e-12    4  2  3  3
 -2.115437473434e-11    4  2  4  1
  2.855601615965e-02    4  2  4  2
  3.015282375090e-11    4  3  1  1
 -2.226728873208e-11    4  3  2  1
 -1.926776492783e-11    4  3  2  2
 -2.186412834379e-11    4  3  3  1
  1.173772045195e-12    4  3  3  2
  2.778137935594e-11    4  3  3  3
  2.532147414655e-03    4  3  4  1
  4.867062755130e-11    4  3  4  2
  2.900127065832e-02    4  3  4  3
  3.218951660674e-01    4  4  1  1
  9.950359621861e-11    4  4  2  1
  6.803533511224e-01    4  4  2  2
  5.441287430211e-03    4  4  3  1
 -1.026459771448e-10    4  4  3  2
  6.816767964170e-01    4  4  3  3
 -3.434976263592e-10    4  4  4  1
 -4.802210738506e-12    4  4  4  2
  2.253646036350e-11    4  4  4  3
  7.400003897127e-01    4  4  4  4
  5.877863758444e-02    5  1  5  1
  5.137848889836e-09    5  2  5  1
  1.023106049832e-02    5  2  5  2
 -1.603402613937e-02    5  3  5  1
 -1.201614987632e-09    5  3  5  2
  9.880488848831e-03    5  3  5  3
 -2.151801022199e-12    5  4  5  1
  2.728010779474e-11    5  4  5  2
  3.731144034212e-12    5  4  5  3
  1.700797830222e-03    5  4  5  4
  2.507428918520e-01    5  5  1  1
  2.818369197433e-09    5  5  2  1
  3.163711513404e-01    5  5  2  2
 -7.873263212243e-03    5  5  3  1
 -1.946692500877e-09    5  5  3  2
  3.158034772477e-01    5  5  3  3
 -6.419477821881e-11    5  5  4  1
  4.461664541352e-11    5  5  4  2
  8.310521367111e-12    5  5  4  3
  3.033094203056e-01    5  5  4  4
  2.685322105602e-01    5  5  5  5
  1.092725858665e-10    6  1  5  1
  1.650289928269e-02    6  1  5  2
  2.761446932935e-09    6  1  5  3
  4.994034463941e-11    6  1  5  4
  5.928310240946e-02    6  1  6  1
  1.635944371991e-02    6  2  5  1
  1.653468083978e-10    6  2  5  2
 -6.584608485043e-03    6  2  5  3
  7.611899121086e-11    6  2  5  4
 -4.768135730734e-09    6  2  6  1
  9.974908371319e-03    6  2  6  2
  2.603246570462e-09    6  3  5  1
 -1.892893996143e-03    6  3  5  2
 -1.374208548884e-09    6  3  5  3
 -1.157351811311e-11    6  3  5  4
 -4.492072220150e-04    6  3  6  1
  1.400468454804e-09    6  3  6  2
  1.754738152958e-03    6  3  6  3
  5.185357976769e-11    6  4  5  1
  2.995067079926e-10    6  4  5  2
 -4.058094868173e-11    6  4  5  3
  1.227920002083e-09    6  4  5  4
  1.515358048870e-09    6  4  6  1
  3.950731301428e-10    6  4  6  3
  9.539867510554e-03    6  4  6  4
  8.701313375798e-12    6  5  1  1
  8.862930296619e-03    6  5  2  1
  1.293283644290e-10    6  5  2  2
  1.434788837957e-09    6  5  3  1
 -6.663703326844e-03    6  5  3  2
 -2.304346726718e-09    6  5  3  3
  2.747905362921e-11    6  5  4  1
  2.930506698476e-10    6  5  4  2
 -4.259341473462e-11    6  5  4  3
  1.849686565482e-09    6  5  4  4
  2.074874372465e-10    6  5  5  5
  1.695310137110e-02    6  5  6  5
  2.501724526175e-01    6  6  1  1
 -2.564377245467e-09    6  6  2  1
  3.136750600215e-01    6  6  2  2
  3.959452475896e-04    6  6  3  1
  2.219782900254e-09    6  6  3  2
  3.013445256329e-01    6  6  3  3
  7.581742225463e-10    6  6  4  1
  6.212961853609e-10    6  6  4  3
  3.135917870873e-01    6  6  4  4
  2.366494319485e-01    6  6  5  5
 -4.551685248483e-10    6  6  6  5
  2.652117453972e-01    6  6  6  6
 -1.438779204079e+00    1  1  0  0
 -3.392494066300e-10    2  1  0  0
 -2.439636257876e+00    2  2  0  0
 -8.114840307157e-03    3  1  0  0
 -3.447463679982e-11    3  2  0  0
 -2.440634530934e+00    3  3  0  0
  7.397653790402e-10    4  1  0  0
 -1.548741472276e-12    4  2  0  0
 -5.616354804937e-11    4  3  0  0
 -2.442403235691e+00    4  4  0  0
 -1.273276054533e+00    5  5  0  0
  3.853946217418e-10    6  5  0  0
 -1.267325629545e+00    6  6  0  0
    -64.612488476500   0  0  0  0
