#INFO: **** input file is /projects/bamu3429/BENCHMARK/fresh_atoms/MRPT/vqz/atoms/V_0/mrpt.py ****
import json
from pyscf import gto,scf,mcscf, fci, lo, ci, cc
from pyscf.scf import ROHF, UHF,ROKS
import numpy as np
import pandas as pd

# THIS IS WERE IT STARTS ====================================

df=json.load(open("../../../trail.json"))

spins={'Sc':1, 'Ti':2, 'V':3, 'Cr':6, 'Mn':5, 'Fe':4, 'Cu':1}

nd={'Sc':(1,0), 'Ti':(2,0), 'V':(3,0), 'Cr':(5,0), 'Mn':(5,0), 'Fe':(5,1), 'Cu':(5,5)}

cas={'Sc':3, 'Ti':4, 'V':5, 'Cr':6, 'Mn':7, 'Fe':8, 'Cu':11}

datacsv={}
for nm in ['atom','charge','method','basis','pseudopotential','hf',
           'totalenergy','totalenergy-stocherr','totalenergy-syserr']:
  datacsv[nm]=[]

basis='vqz'
el='V'
charge=0

mol=gto.Mole()
mol.ecp={}
mol.basis={}
mol.ecp[el]=gto.basis.parse_ecp(df[el]['ecp'])
mol.basis[el]=gto.basis.parse(df[el][basis])
mol.charge=charge
if el == 'Cr' or el == 'Cu':
  mol.spin=spins[el]-charge
else:
  mol.spin=spins[el]+charge
mol.build(atom="%s 0. 0. 0."%el,verbose=4)

m=ROHF(mol)
m.level_shift=1000.0
dm=m.from_chk("../../../../HF/atoms/"+el+basis+str(charge)+".chk")
hf=m.kernel(dm)
m.analyze()

from pyscf.shciscf import shci
mc = shci.SHCISCF(m, 6, cas[el]-charge)
#mc.fcisolver.conv_tol = 1e-14
mc.fcisolver.mpiprefix="mpirun -np 28"
mc.fcisolver.num_thrds=12
mc.verbose = 4
cas=mc.kernel()[0]
 
from pyscf.icmpspt import icmpspt
pt=icmpspt.icmpspt(mc,rdmM=500, PTM=1000,\
                          pttype="MRLCC",\
                          third_order=True,\
                          fully_ic=True,\
                          do_dm4=True)

datacsv['atom'].append(el)
datacsv['charge'].append(charge)
datacsv['method'].append('MRPT')
datacsv['basis'].append(basis)
datacsv['pseudopotential'].append('trail')
datacsv['hf'].append(hf)
datacsv['totalenergy'].append(cas+pt)
datacsv['totalenergy-stocherr'].append(0.0)
datacsv['totalenergy-syserr'].append(0.0)
pd.DataFrame(datacsv).to_csv(el+".csv",index=False)

#INFO: ******************** input file end ********************


System: ('Linux', 'bnode0308.rc.int.colorado.edu', '3.10.0-514.41.1.el7.x86_64', '#1 SMP Wed Jan 17 10:26:16 EST 2018', 'x86_64', 'x86_64')  Threads 1
Python 2.7.11 (default, Mar 22 2016, 01:42:54) 
[GCC Intel(R) C++ gcc 4.8 mode]
numpy 1.11.1  scipy 0.17.1
Date: Tue Mar 27 11:23:29 2018
PySCF version 1.4
PySCF path  /projects/bamu3429/softwares/pyscf_uptodate/pyscf
GIT ORIG_HEAD e2292e6edec2b0e0024c21b81de03db1d7bd4121
GIT HEAD      ref: refs/heads/master
GIT master branch  f3591ef22170896a4cdc2aadaa6f5da388ffcadb

[INPUT] VERBOSE 4
[INPUT] num atoms = 1
[INPUT] num electrons = 13
[INPUT] charge = 0
[INPUT] spin (= nelec alpha-beta = 2S) = 3
[INPUT] symmetry False subgroup None
[INPUT]  1 V      0.000000000000   0.000000000000   0.000000000000 AA    0.000000000000   0.000000000000   0.000000000000 Bohr
[INPUT] ---------------- BASIS SET ---------------- 
[INPUT] l, kappa, [nprim/nctr], expnt,             c_1 c_2 ...
[INPUT] V
[INPUT] 0    0    [12   /1   ]  33.51168105       0.006845
                                15.38532624       -0.214557
                                9.96227367        1.392425
                                8.05943355        -1.485929
                                3.6960334         -0.026725
                                1.49220279        0.457681
                                0.84622253        0.506886
                                0.43855031        0.249453
                                0.2102388         0.007109
                                0.1022422         0.007055
                                0.04832462        -0.000443
                                0.02406855        0.001278
[INPUT] 0    0    [12   /1   ]  33.51168105       -0.001211
                                15.38532624       0.04697
                                9.96227367        -0.329808
                                8.05943355        0.363635
                                3.6960334         0.005985
                                1.49220279        -0.140857
                                0.84622253        -0.203846
                                0.43855031        -0.200776
                                0.2102388         0.022081
                                0.1022422         0.429765
                                0.04832462        0.534383
                                0.02406855        0.187984
[INPUT] 0    0    [12   /1   ]  33.51168105       -0.00739
                                15.38532624       0.238491
                                9.96227367        -1.724091
                                8.05943355        1.999647
                                3.6960334         -0.238256
                                1.49220279        -1.556963
                                0.84622253        0.309646
                                0.43855031        0.556155
                                0.2102388         0.87521
                                0.1022422         0.066563
                                0.04832462        -0.498018
                                0.02406855        -0.328938
[INPUT] 0    0    [12   /1   ]  33.51168105       -0.014812
                                15.38532624       0.388493
                                9.96227367        -2.78127
                                8.05943355        3.330758
                                3.6960334         -0.94462
                                1.49220279        -2.423512
                                0.84622253        2.390354
                                0.43855031        1.173321
                                0.2102388         -1.126324
                                0.1022422         -1.21378
                                0.04832462        0.578957
                                0.02406855        0.647397
[INPUT] 0    0    [12   /1   ]  33.51168105       0.02431
                                15.38532624       -0.654708
                                9.96227367        5.220233
                                8.05943355        -6.798776
                                3.6960334         4.217259
                                1.49220279        -0.410754
                                0.84622253        -4.499651
                                0.43855031        4.05621
                                0.2102388         0.422256
                                0.1022422         -1.849392
                                0.04832462        -0.198025
                                0.02406855        0.951472
[INPUT] 0    0    [1    /1   ]  0.02406855           1
[INPUT] 0    0    [1    /1   ]  0.01198757           1
[INPUT] 1    0    [12   /1   ]  49.83779697       0.000413
                                25.60370921       -0.003442
                                10.40982442       0.097153
                                7.71483683        -0.206888
                                4.49868206        0.083281
                                2.48212838        0.186621
                                1.4387019         0.395144
                                0.72090362        0.377883
                                0.3443302         0.134629
                                0.13162828        0.011074
                                0.05284968        -0.000426
                                0.02121951        0.000256
[INPUT] 1    0    [12   /1   ]  49.83779697       -2.9e-05
                                25.60370921       0.000502
                                10.40982442       -0.020934
                                7.71483683        0.047431
                                4.49868206        -0.020701
                                2.48212838        -0.057583
                                1.4387019         -0.106451
                                0.72090362        -0.140229
                                0.3443302         0.043257
                                0.13162828        0.438687
                                0.05284968        0.536785
                                0.02121951        0.12546
[INPUT] 1    0    [12   /1   ]  49.83779697       0.000125
                                25.60370921       -0.002517
                                10.40982442       0.129205
                                7.71483683        -0.331116
                                4.49868206        0.199683
                                2.48212838        0.736477
                                1.4387019         0.263863
                                0.72090362        -0.926674
                                0.3443302         -0.457633
                                0.13162828        0.732362
                                0.05284968        0.294964
                                0.02121951        -0.006728
[INPUT] 1    0    [12   /1   ]  49.83779697       -0.000421
                                25.60370921       -0.000896
                                10.40982442       0.223292
                                7.71483683        -0.706699
                                4.49868206        0.969782
                                2.48212838        1.23461
                                1.4387019         -1.707054
                                0.72090362        -0.818959
                                0.3443302         1.677915
                                0.13162828        -0.284846
                                0.05284968        -0.553275
                                0.02121951        0.038662
[INPUT] 1    0    [12   /1   ]  49.83779697       -0.005409
                                25.60370921       0.02436
                                10.40982442       0.004817
                                7.71483683        -0.691264
                                4.49868206        2.714011
                                2.48212838        -1.342486
                                1.4387019         -2.368929
                                0.72090362        3.305492
                                0.3443302         -1.334113
                                0.13162828        -0.670775
                                0.05284968        0.961376
                                0.02121951        -0.095792
[INPUT] 1    0    [1    /1   ]  0.02121951           1
[INPUT] 1    0    [1    /1   ]  0.00851977           1
[INPUT] 2    0    [10   /1   ]  34.27504048       0.000678
                                16.12418185       -0.017858
                                9.59474528        0.107867
                                3.8690861         0.173949
                                1.82728072        0.26883
                                0.85799457        0.321303
                                0.38035078        0.300128
                                0.15533087        0.170792
                                0.06318167        0.035148
                                0.03734397        0.003549
[INPUT] 2    0    [10   /1   ]  34.27504048       0.000582
                                16.12418185       0.010626
                                9.59474528        -0.094081
                                3.8690861         -0.229152
                                1.82728072        -0.398003
                                0.85799457        -0.07706
                                0.38035078        0.316419
                                0.15533087        0.47231
                                0.06318167        0.193995
                                0.03734397        0.015813
[INPUT] 2    0    [10   /1   ]  34.27504048       0.003942
                                16.12418185       -0.00929
                                9.59474528        -0.056573
                                3.8690861         -0.437279
                                1.82728072        -0.366316
                                0.85799457        0.692165
                                0.38035078        0.436052
                                0.15533087        -0.45661
                                0.06318167        -0.393393
                                0.03734397        -0.018597
[INPUT] 2    0    [10   /1   ]  34.27504048       -0.001109
                                16.12418185       0.03439
                                9.59474528        -0.270394
                                3.8690861         -0.936233
                                1.82728072        1.031092
                                0.85799457        0.469932
                                0.38035078        -0.990908
                                0.15533087        0.147863
                                0.06318167        0.422386
                                0.03734397        0.020135
[INPUT] 2    0    [1    /1   ]  0.03734397           1
[INPUT] 2    0    [1    /1   ]  0.02207241           1
[INPUT] 3    0    [1    /1   ]  3.23539              1
[INPUT] 3    0    [1    /1   ]  1.128879             1
[INPUT] 3    0    [1    /1   ]  0.393882             1
[INPUT] 3    0    [1    /1   ]  0.13743105           1
[INPUT] 4    0    [1    /1   ]  3.232259             1
[INPUT] 4    0    [1    /1   ]  1.154065             1
[INPUT] 4    0    [1    /1   ]  0.41205423           1
[INPUT] 5    0    [1    /1   ]  2.694878             1
[INPUT] 5    0    [1    /1   ]  0.96219527           1
nuclear repulsion = 0
number of shells = 29
number of NR pGTOs = 535
number of NR cGTOs = 135
basis = {'V': [[0, [33.51168105, 0.006845], [15.38532624, -0.214557], [9.96227367, 1.392425], [8.05943355, -1.485929], [3.6960334, -0.026725], [1.49220279, 0.457681], [0.84622253, 0.506886], [0.43855031, 0.249453], [0.2102388, 0.007109], [0.1022422, 0.007055], [0.04832462, -0.000443], [0.02406855, 0.001278]], [0, [33.51168105, -0.001211], [15.38532624, 0.04697], [9.96227367, -0.329808], [8.05943355, 0.363635], [3.6960334, 0.005985], [1.49220279, -0.140857], [0.84622253, -0.203846], [0.43855031, -0.200776], [0.2102388, 0.022081], [0.1022422, 0.429765], [0.04832462, 0.534383], [0.02406855, 0.187984]], [0, [33.51168105, -0.00739], [15.38532624, 0.238491], [9.96227367, -1.724091], [8.05943355, 1.999647], [3.6960334, -0.238256], [1.49220279, -1.556963], [0.84622253, 0.309646], [0.43855031, 0.556155], [0.2102388, 0.87521], [0.1022422, 0.066563], [0.04832462, -0.498018], [0.02406855, -0.328938]], [0, [33.51168105, -0.014812], [15.38532624, 0.388493], [9.96227367, -2.78127], [8.05943355, 3.330758], [3.6960334, -0.94462], [1.49220279, -2.423512], [0.84622253, 2.390354], [0.43855031, 1.173321], [0.2102388, -1.126324], [0.1022422, -1.21378], [0.04832462, 0.578957], [0.02406855, 0.647397]], [0, [33.51168105, 0.02431], [15.38532624, -0.654708], [9.96227367, 5.220233], [8.05943355, -6.798776], [3.6960334, 4.217259], [1.49220279, -0.410754], [0.84622253, -4.499651], [0.43855031, 4.05621], [0.2102388, 0.422256], [0.1022422, -1.849392], [0.04832462, -0.198025], [0.02406855, 0.951472]], [0, [0.02406855, 1.0]], [0, [0.01198757, 1.0]], [1, [49.83779697, 0.000413], [25.60370921, -0.003442], [10.40982442, 0.097153], [7.71483683, -0.206888], [4.49868206, 0.083281], [2.48212838, 0.186621], [1.4387019, 0.395144], [0.72090362, 0.377883], [0.3443302, 0.134629], [0.13162828, 0.011074], [0.05284968, -0.000426], [0.02121951, 0.000256]], [1, [49.83779697, -2.9e-05], [25.60370921, 0.000502], [10.40982442, -0.020934], [7.71483683, 0.047431], [4.49868206, -0.020701], [2.48212838, -0.057583], [1.4387019, -0.106451], [0.72090362, -0.140229], [0.3443302, 0.043257], [0.13162828, 0.438687], [0.05284968, 0.536785], [0.02121951, 0.12546]], [1, [49.83779697, 0.000125], [25.60370921, -0.002517], [10.40982442, 0.129205], [7.71483683, -0.331116], [4.49868206, 0.199683], [2.48212838, 0.736477], [1.4387019, 0.263863], [0.72090362, -0.926674], [0.3443302, -0.457633], [0.13162828, 0.732362], [0.05284968, 0.294964], [0.02121951, -0.006728]], [1, [49.83779697, -0.000421], [25.60370921, -0.000896], [10.40982442, 0.223292], [7.71483683, -0.706699], [4.49868206, 0.969782], [2.48212838, 1.23461], [1.4387019, -1.707054], [0.72090362, -0.818959], [0.3443302, 1.677915], [0.13162828, -0.284846], [0.05284968, -0.553275], [0.02121951, 0.038662]], [1, [49.83779697, -0.005409], [25.60370921, 0.02436], [10.40982442, 0.004817], [7.71483683, -0.691264], [4.49868206, 2.714011], [2.48212838, -1.342486], [1.4387019, -2.368929], [0.72090362, 3.305492], [0.3443302, -1.334113], [0.13162828, -0.670775], [0.05284968, 0.961376], [0.02121951, -0.095792]], [1, [0.02121951, 1.0]], [1, [0.00851977, 1.0]], [2, [34.27504048, 0.000678], [16.12418185, -0.017858], [9.59474528, 0.107867], [3.8690861, 0.173949], [1.82728072, 0.26883], [0.85799457, 0.321303], [0.38035078, 0.300128], [0.15533087, 0.170792], [0.06318167, 0.035148], [0.03734397, 0.003549]], [2, [34.27504048, 0.000582], [16.12418185, 0.010626], [9.59474528, -0.094081], [3.8690861, -0.229152], [1.82728072, -0.398003], [0.85799457, -0.07706], [0.38035078, 0.316419], [0.15533087, 0.47231], [0.06318167, 0.193995], [0.03734397, 0.015813]], [2, [34.27504048, 0.003942], [16.12418185, -0.00929], [9.59474528, -0.056573], [3.8690861, -0.437279], [1.82728072, -0.366316], [0.85799457, 0.692165], [0.38035078, 0.436052], [0.15533087, -0.45661], [0.06318167, -0.393393], [0.03734397, -0.018597]], [2, [34.27504048, -0.001109], [16.12418185, 0.03439], [9.59474528, -0.270394], [3.8690861, -0.936233], [1.82728072, 1.031092], [0.85799457, 0.469932], [0.38035078, -0.990908], [0.15533087, 0.147863], [0.06318167, 0.422386], [0.03734397, 0.020135]], [2, [0.03734397, 1.0]], [2, [0.02207241, 1.0]], [3, [3.23539, 1.0]], [3, [1.128879, 1.0]], [3, [0.393882, 1.0]], [3, [0.13743105, 1.0]], [4, [3.232259, 1.0]], [4, [1.154065, 1.0]], [4, [0.41205423, 1.0]], [5, [2.694878, 1.0]], [5, [0.96219527, 1.0]]]}
ecp = {'V': [10, [[-1, [[], [[8.85341849, 13.0]], [[14.12393489, 1867.96836466], [10.01469125, -417.2185296], [16.87739786, -6735.41034163], [17.42661229, 5248.9519915]], [[8.14766139, 115.09444037]]]], [0, [[], [], [[10.17161428, 8429.89768085], [6.62108601, -4738.0869454], [6.4407206, 3874.69004628], [11.26222343, -9817.80452096], [19.82459033, -286.16022228], [14.35299938, 2571.80634504]], []]], [1, [[], [], [[10.25117807, 40641.17869487], [10.49106006, -41559.00487832], [13.7869188, 3357.33248976], [16.29479305, -896.47755921], [7.79003518, -1904.45864373], [6.62830213, 382.3757783]], []]], [2, [[], [], [[8.601477, 4615.05527413], [10.66674565, -3671.60281242], [15.19026557, 4480.50015686], [8.06189603, -2591.12632756], [19.82232597, 2587.18683714], [18.22318105, -5431.92186158]], []]]]]}
CPU time:         0.62


******** <class 'pyscf.scf.rohf.ROHF'> flags ********
method = ROHF
initial guess = minao
damping factor = 0
level shift factor = 1000.0
DIIS = <class 'pyscf.scf.diis.CDIIS'>
DIIS start cycle = 1
DIIS space = 8
SCF tol = 1e-09
SCF gradient tol = None
max. SCF cycles = 50
direct_scf = True
direct_scf_tol = 1e-13
chkfile to save SCF result = /projects/bamu3429/BENCHMARK/fresh_atoms/MRPT/vqz/atoms/V_0/tmpSQDnKi
max_memory 4000 MB (current use 83 MB)
num. doubly occ = 5  num. singly occ = 3
Set gradient conv threshold to 3.16228e-05
init E= -70.6957006590861
  HOMO = 499.893080120327  LUMO = 1000.01365425857
cycle= 1 E= -70.6957006590863  delta_E= -1.42e-13  |g|= 1.17e-05  |ddm|= 5.63e-08
  HOMO = -0.106919882164924  LUMO = 0.0136542585829699
Extra cycle  E= -70.6957006591023  delta_E= -1.6e-11  |g|= 3.83e-06  |ddm|= 3.99e-05
converged SCF energy = -70.6957006591023
**** MO energy ****
                Roothaan           | alpha              | beta
MO #1   energy= -3.22253707133675  | -3.3345833154578   | -3.11049082721572  occ= 2
MO #2   energy= -2.03218691210995  | -2.17010643399815  | -1.89426739022175  occ= 2
MO #3   energy= -2.0321868511777   | -2.170106660298    | -1.8942670420574   occ= 2
MO #4   energy= -2.03218683486761  | -2.17010692841545  | -1.89426674131977  occ= 2
MO #5   energy= -0.232061958035631 | -0.243404952361745 | -0.220718963709518 occ= 2
MO #6   energy= -0.10692017437986  | -0.505911666313108 | 0.292070664199965  occ= 1
MO #7   energy= -0.106920037092205 | -0.505911450149522 | 0.292070733971586  occ= 1
MO #8   energy= -0.106919882164924 | -0.505911237766254 | 0.292070830208931  occ= 1
MO #9   energy= 0.0136542585829699 | 0.0129486629759105 | 0.0143598541900337 occ= 0
MO #10  energy= 0.0136542666756463 | 0.0129486701410497 | 0.014359863210243  occ= 0
MO #11  energy= 0.0136542677085431 | 0.0129486702776392 | 0.0143598651394492 occ= 0
MO #12  energy= 0.0260928529287443 | 0.0255211660583198 | 0.0266645397991693 occ= 0
MO #13  energy= 0.0421680645818537 | 0.0400241910935182 | 0.0443119380701947 occ= 0
MO #14  energy= 0.0421680801767971 | 0.0400242012792248 | 0.0443119590743704 occ= 0
MO #15  energy= 0.0421680887881489 | 0.0400242052276978 | 0.0443119723486032 occ= 0
MO #16  energy= 0.061011929891185  | 0.060706278636836  | 0.0613175811455351 occ= 0
MO #17  energy= 0.0610119362727987 | 0.0607062851326923 | 0.0613175874129061 occ= 0
MO #18  energy= 0.0625650926691893 | 0.0623412438382773 | 0.0627891069191619 occ= 0
MO #19  energy= 0.0625650961653043 | 0.0623412475395218 | 0.0627891104639546 occ= 0
MO #20  energy= 0.0625650980178997 | 0.0623412491008319 | 0.0627891122973476 occ= 0
MO #21  energy= 0.13298798655839   | 0.121290431854116  | 0.14468554126266   occ= 0
MO #22  energy= 0.132988001598926  | 0.121290446379889  | 0.144685556817917  occ= 0
MO #23  energy= 0.17264329364487   | 0.165799576389213  | 0.17948701090053   occ= 0
MO #24  energy= 0.172643328079716  | 0.165799594493245  | 0.179487061666178  occ= 0
MO #25  energy= 0.172643345930693  | 0.165799595777987  | 0.179487096083395  occ= 0
MO #26  energy= 0.178327004598625  | 0.174975778945063  | 0.181678314437827  occ= 0
MO #27  energy= 0.178327007228682  | 0.174975783645765  | 0.181678317055331  occ= 0
MO #28  energy= 0.178327025639009  | 0.174975798609089  | 0.181678336568406  occ= 0
MO #29  energy= 0.18650298416434   | 0.182109911171087  | 0.190896057157608  occ= 0
MO #30  energy= 0.227886780046242  | 0.210987736333543  | 0.244785823758939  occ= 0
MO #31  energy= 0.227886796490499  | 0.210987752739614  | 0.244785840241356  occ= 0
MO #32  energy= 0.517084520935588  | 0.51473321625711   | 0.51943582561407   occ= 0
MO #33  energy= 0.517084527014912  | 0.51473320989276   | 0.519435844137063  occ= 0
MO #34  energy= 0.517084551719238  | 0.514733241201533  | 0.519435862236946  occ= 0
MO #35  energy= 0.51713542962823   | 0.51347271945043   | 0.520798139806032  occ= 0
MO #36  energy= 0.517135442027643  | 0.513472720736919  | 0.520798163318362  occ= 0
MO #37  energy= 0.517135454491845  | 0.513472722210534  | 0.520798186773157  occ= 0
MO #38  energy= 0.517143163856252  | 0.51175335335261   | 0.522532974359893  occ= 0
MO #39  energy= 0.600771498980645  | 0.590613587066272  | 0.610929410895064  occ= 0
MO #40  energy= 0.612483854304523  | 0.581324604223803  | 0.643643482835876  occ= 0
MO #41  energy= 0.612483888553681  | 0.581324630794912  | 0.643643517919788  occ= 0
MO #42  energy= 0.61248396421803   | 0.581324702622051  | 0.643643598128511  occ= 0
MO #43  energy= 0.670297536813108  | 0.656561039475127  | 0.684034034151096  occ= 0
MO #44  energy= 0.670297567830599  | 0.656561071060996  | 0.684034064600231  occ= 0
MO #45  energy= 1.04975653219628   | 1.02610035287205   | 1.07341271152052   occ= 0
MO #46  energy= 1.04975664566561   | 1.02610041906697   | 1.07341287226425   occ= 0
MO #47  energy= 1.04975668865847   | 1.02610041576494   | 1.07341296155199   occ= 0
MO #48  energy= 1.5300331696348    | 1.48705170260003   | 1.57301463666956   occ= 0
MO #49  energy= 1.53419458183697   | 1.50477683334318   | 1.56361233033078   occ= 0
MO #50  energy= 1.53419460729571   | 1.50477677824513   | 1.5636124363463    occ= 0
MO #51  energy= 1.5341946331897    | 1.50477672329131   | 1.56361254308809   occ= 0
MO #52  energy= 1.53720714118367   | 1.51837085656607   | 1.55604342580129   occ= 0
MO #53  energy= 1.53720715088884   | 1.51837097106723   | 1.55604333071045   occ= 0
MO #54  energy= 1.537207183871     | 1.51837095208195   | 1.55604341566006   occ= 0
MO #55  energy= 1.90620051244946   | 1.89978074812376   | 1.91262027677515   occ= 0
MO #56  energy= 1.90744514567888   | 1.89960263522906   | 1.91528765612869   occ= 0
MO #57  energy= 1.90744520170949   | 1.89960268949983   | 1.91528771391917   occ= 0
MO #58  energy= 1.90744521612158   | 1.89960270864104   | 1.91528772360212   occ= 0
MO #59  energy= 1.90833402563325   | 1.89948223207124   | 1.91718581919525   occ= 0
MO #60  energy= 1.90833404973278   | 1.89948225682339   | 1.91718584264217   occ= 0
MO #61  energy= 1.91091755660246   | 1.898759661146     | 1.92307545129541   occ= 0
MO #62  energy= 1.9109176015168    | 1.89875969529203   | 1.92307550689516   occ= 0
MO #63  energy= 1.91091760997868   | 1.89875969235668   | 1.92307552679993   occ= 0
MO #64  energy= 2.35946385176938   | 2.33214655205355   | 2.38678115148523   occ= 0
MO #65  energy= 2.49707519867314   | 2.43111974450182   | 2.56303067543685   occ= 0
MO #66  energy= 2.49707528465248   | 2.43111984149926   | 2.56303074838619   occ= 0
MO #67  energy= 2.4970754013165    | 2.43111996922634   | 2.5630308548227    occ= 0
MO #68  energy= 2.52822484661361   | 2.50976715904976   | 2.54668253417746   occ= 0
MO #69  energy= 2.52822487054909   | 2.5097671835389    | 2.5466825575593    occ= 0
MO #70  energy= 3.9140515437917    | 3.88240486435899   | 3.94569822322443   occ= 0
MO #71  energy= 3.91405171949886   | 3.88240498407442   | 3.94569845492327   occ= 0
MO #72  energy= 3.91405182899234   | 3.8824050399891    | 3.94569861799556   occ= 0
MO #73  energy= 4.03793600161567   | 3.94665495252361   | 4.12921705070774   occ= 0
MO #74  energy= 4.04541585341326   | 3.98184606962634   | 4.10898563720017   occ= 0
MO #75  energy= 4.04541591066954   | 3.98184596658264   | 4.10898585475644   occ= 0
MO #76  energy= 4.04541596892656   | 3.9818458658862    | 4.10898607196693   occ= 0
MO #77  energy= 4.0512447884076    | 4.00953505225752   | 4.09295452455768   occ= 0
MO #78  energy= 4.05124481379405   | 4.00953530258024   | 4.09295432500787   occ= 0
MO #79  energy= 4.05124482007172   | 4.00953519740249   | 4.09295444274096   occ= 0
MO #80  energy= 5.40000399377946   | 5.38813953764341   | 5.4118684499155    occ= 0
MO #81  energy= 5.40000404905767   | 5.38813957996115   | 5.41186851815418   occ= 0
MO #82  energy= 5.40000405654574   | 5.3881395940852    | 5.41186851900627   occ= 0
MO #83  energy= 5.40294831259016   | 5.38941279889898   | 5.41648382628134   occ= 0
MO #84  energy= 5.40294836340569   | 5.38941282628485   | 5.41648390052654   occ= 0
MO #85  energy= 5.40294836401189   | 5.38941283890576   | 5.41648388911802   occ= 0
MO #86  energy= 5.41062599454264   | 5.39241891190367   | 5.42883307718162   occ= 0
MO #87  energy= 5.41062602930917   | 5.3924189470383    | 5.42883311158005   occ= 0
MO #88  energy= 5.4120564171702    | 5.39298322690444   | 5.43112960743597   occ= 0
MO #89  energy= 5.41205646681694   | 5.39298325972336   | 5.43112967391051   occ= 0
MO #90  energy= 5.41205655220087   | 5.39298332866634   | 5.43112977573541   occ= 0
MO #91  energy= 5.62929150884921   | 5.60802369152992   | 5.65055932616851   occ= 0
MO #92  energy= 5.63232120621951   | 5.60616114886752   | 5.65848126357152   occ= 0
MO #93  energy= 5.63232123072028   | 5.60616116210863   | 5.65848129933193   occ= 0
MO #94  energy= 5.63232126351744   | 5.606161217892     | 5.65848130914288   occ= 0
MO #95  energy= 5.63450621234467   | 5.60493252534667   | 5.66407989934266   occ= 0
MO #96  energy= 5.63450622796051   | 5.60493254125649   | 5.66407991466455   occ= 0
MO #97  energy= 5.64086482804018   | 5.6004462487273    | 5.68128341274923   occ= 0
MO #98  energy= 5.64086490349878   | 5.60044629073127   | 5.68128352157897   occ= 0
MO #99  energy= 5.64086495536554   | 5.60044630859956   | 5.68128360743507   occ= 0
MO #100 energy= 7.22180390756182   | 7.16857338844838   | 7.27503442209387   occ= 0
MO #101 energy= 7.22180401673814   | 7.16857351161417   | 7.27503451725572   occ= 0
MO #102 energy= 7.22180412368578   | 7.16857362967456   | 7.27503461311859   occ= 0
MO #103 energy= 7.2293306290258    | 7.21207526295597   | 7.24658599509563   occ= 0
MO #104 energy= 7.22933062934066   | 7.21207526300787   | 7.24658599567343   occ= 0
MO #105 energy= 8.32518782901134   | 8.29335661809246   | 8.35701903993022   occ= 0
MO #106 energy= 10.8416762634263   | 10.8035067141746   | 10.879845812678    occ= 0
MO #107 energy= 10.8416762833217   | 10.8035066332399   | 10.8798459334035   occ= 0
MO #108 energy= 10.8416763189269   | 10.8035065688858   | 10.8798460689679   occ= 0
MO #109 energy= 10.8423026877044   | 10.7852849784887   | 10.8993203969201   occ= 0
MO #110 energy= 10.8423028147446   | 10.7852849709514   | 10.8993206585377   occ= 0
MO #111 energy= 10.8423029424199   | 10.7852849665671   | 10.8993209182726   occ= 0
MO #112 energy= 10.8428801142382   | 10.7620222528998   | 10.9237379755765   occ= 0
MO #113 energy= 11.5618671567623   | 11.5309811603884   | 11.5927531531361   occ= 0
MO #114 energy= 11.5618673226391   | 11.530981270616    | 11.5927533746621   occ= 0
MO #115 energy= 11.5618674974405   | 11.5309813910815   | 11.5927536037995   occ= 0
MO #116 energy= 15.2059864766035   | 15.1790382738599   | 15.2329346793471   occ= 0
MO #117 energy= 15.2107963979686   | 15.1776890143352   | 15.243903781602    occ= 0
MO #118 energy= 15.2107964318671   | 15.1776890649094   | 15.2439037988247   occ= 0
MO #119 energy= 15.2107964382992   | 15.1776890863512   | 15.2439037902472   occ= 0
MO #120 energy= 15.2142474402949   | 15.1767531662898   | 15.2517417143      occ= 0
MO #121 energy= 15.2142474454074   | 15.1767531722028   | 15.2517417186119   occ= 0
MO #122 energy= 15.2245149942048   | 15.1735429403177   | 15.2754870484342   occ= 0
MO #123 energy= 15.2245150816843   | 15.1735429868551   | 15.2754871768545   occ= 0
MO #124 energy= 15.224515177237    | 15.1735430414845   | 15.2754873133002   occ= 0
MO #125 energy= 15.8983719592085   | 15.8763892151469   | 15.92035470327     occ= 0
MO #126 energy= 15.898372006206    | 15.8763892505057   | 15.9203547619063   occ= 0
MO #127 energy= 15.8983720526534   | 15.8763892856542   | 15.9203548196525   occ= 0
MO #128 energy= 15.9037624602749   | 15.8786108164046   | 15.9289141041452   occ= 0
MO #129 energy= 15.9037625065869   | 15.8786108400446   | 15.9289141731293   occ= 0
MO #130 energy= 15.9037625522969   | 15.8786108634855   | 15.9289142411083   occ= 0
MO #131 energy= 15.9178372467946   | 15.8840921543762   | 15.9515823392131   occ= 0
MO #132 energy= 15.917837246834    | 15.8840921544803   | 15.9515823391877   occ= 0
MO #133 energy= 15.920453076193    | 15.8851225787809   | 15.9557835736052   occ= 0
MO #134 energy= 15.9204531899777   | 15.8851226641122   | 15.9557837158432   occ= 0
MO #135 energy= 15.9204533039031   | 15.8851227495602   | 15.9557838582461   occ= 0
 ** Mulliken pop on meta-lowdin orthogonal AOs  **
 ** Mulliken pop  **
pop of  0V 3s        1.99996
pop of  0V 4s        1.99924
pop of  0V 5s        0.00045
pop of  0V 6s        0.00016
pop of  0V 7s        0.00001
pop of  0V 8s        0.00010
pop of  0V 9s        0.00008
pop of  0V 3px       1.99968
pop of  0V 3py       1.99968
pop of  0V 3pz       1.99968
pop of  0V 4px       0.00010
pop of  0V 4py       0.00010
pop of  0V 4pz       0.00010
pop of  0V 5px       0.00002
pop of  0V 5py       0.00002
pop of  0V 5pz       0.00002
pop of  0V 6px       0.00001
pop of  0V 6py       0.00001
pop of  0V 6pz       0.00001
pop of  0V 7px       0.00000
pop of  0V 7py       0.00000
pop of  0V 7pz       0.00000
pop of  0V 8px       0.00000
pop of  0V 8py       0.00000
pop of  0V 8pz       0.00000
pop of  0V 9px       0.00000
pop of  0V 9py       0.00000
pop of  0V 9pz       0.00000
pop of  0V 3dxy      0.99530
pop of  0V 3dyz      0.99530
pop of  0V 3dz^2     0.74648
pop of  0V 3dxz      0.00000
pop of  0V 3dx2-y2    0.24882
pop of  0V 4dxy      0.00380
pop of  0V 4dyz      0.00380
pop of  0V 4dz^2     0.00285
pop of  0V 4dxz      0.00000
pop of  0V 4dx2-y2    0.00095
pop of  0V 5dxy      0.00030
pop of  0V 5dyz      0.00030
pop of  0V 5dz^2     0.00022
pop of  0V 5dxz      0.00000
pop of  0V 5dx2-y2    0.00007
pop of  0V 6dxy      0.00000
pop of  0V 6dyz      0.00000
pop of  0V 6dz^2     0.00000
pop of  0V 6dxz      0.00000
pop of  0V 6dx2-y2    0.00000
pop of  0V 7dxy      0.00050
pop of  0V 7dyz      0.00050
pop of  0V 7dz^2     0.00038
pop of  0V 7dxz      0.00000
pop of  0V 7dx2-y2    0.00013
pop of  0V 8dxy      0.00008
pop of  0V 8dyz      0.00008
pop of  0V 8dz^2     0.00006
pop of  0V 8dxz      0.00000
pop of  0V 8dx2-y2    0.00002
pop of  0V 4fy^3     0.00002
pop of  0V 4fxyz     0.00000
pop of  0V 4fyz^2    0.00001
pop of  0V 4fz^3     0.00000
pop of  0V 4fxz^2    0.00003
pop of  0V 4fzx^2    0.00003
pop of  0V 4fx^3     0.00001
pop of  0V 5fy^3     0.00006
pop of  0V 5fxyz     0.00000
pop of  0V 5fyz^2    0.00003
pop of  0V 5fz^3     0.00001
pop of  0V 5fxz^2    0.00007
pop of  0V 5fzx^2    0.00008
pop of  0V 5fx^3     0.00001
pop of  0V 6fy^3     0.00003
pop of  0V 6fxyz     0.00000
pop of  0V 6fyz^2    0.00002
pop of  0V 6fz^3     0.00000
pop of  0V 6fxz^2    0.00004
pop of  0V 6fzx^2    0.00005
pop of  0V 6fx^3     0.00001
pop of  0V 7fy^3     0.00000
pop of  0V 7fxyz     0.00000
pop of  0V 7fyz^2    0.00000
pop of  0V 7fz^3     0.00000
pop of  0V 7fxz^2    0.00000
pop of  0V 7fzx^2    0.00000
pop of  0V 7fx^3     0.00000
pop of  0V 5g-4      0.00000
pop of  0V 5g-3      0.00000
pop of  0V 5g-2      0.00000
pop of  0V 5g-1      0.00000
pop of  0V 5g 0      0.00000
pop of  0V 5g 1      0.00000
pop of  0V 5g 2      0.00000
pop of  0V 5g 3      0.00000
pop of  0V 5g 4      0.00000
pop of  0V 6g-4      0.00000
pop of  0V 6g-3      0.00000
pop of  0V 6g-2      0.00000
pop of  0V 6g-1      0.00000
pop of  0V 6g 0      0.00000
pop of  0V 6g 1      0.00000
pop of  0V 6g 2      0.00000
pop of  0V 6g 3      0.00000
pop of  0V 6g 4      0.00000
pop of  0V 7g-4      0.00000
pop of  0V 7g-3      0.00000
pop of  0V 7g-2      0.00000
pop of  0V 7g-1      0.00000
pop of  0V 7g 0      0.00000
pop of  0V 7g 1      0.00000
pop of  0V 7g 2      0.00000
pop of  0V 7g 3      0.00000
pop of  0V 7g 4      0.00000
pop of  0V 6h-5      0.00000
pop of  0V 6h-4      0.00000
pop of  0V 6h-3      0.00000
pop of  0V 6h-2      0.00000
pop of  0V 6h-1      0.00000
pop of  0V 6h 0      0.00000
pop of  0V 6h 1      0.00000
pop of  0V 6h 2      0.00000
pop of  0V 6h 3      0.00000
pop of  0V 6h 4      0.00000
pop of  0V 6h 5      0.00000
pop of  0V 7h-5      0.00000
pop of  0V 7h-4      0.00000
pop of  0V 7h-3      0.00000
pop of  0V 7h-2      0.00000
pop of  0V 7h-1      0.00000
pop of  0V 7h 0      0.00000
pop of  0V 7h 1      0.00000
pop of  0V 7h 2      0.00000
pop of  0V 7h 3      0.00000
pop of  0V 7h 4      0.00000
pop of  0V 7h 5      0.00000
 ** Mulliken atomic charges  **
charge of  0V =      0.00000

******** <class 'pyscf.mcscf.mc1step.CASSCF'> flags ********
CAS (4e+1e, 6o), ncore = 4, nvir = 125
max_cycle_macro = 50
max_cycle_micro = 4
conv_tol = 1e-07
conv_tol_grad = None
orbital rotation max_stepsize = 0.02
augmented hessian ah_max_cycle = 30
augmented hessian ah_conv_tol = 1e-12
augmented hessian ah_linear dependence = 1e-14
augmented hessian ah_level shift = 0
augmented hessian ah_start_tol = 2.5
augmented hessian ah_start_cycle = 3
augmented hessian ah_grad_trust_region = 3
kf_trust_region = 3
kf_interval = 4
ci_response_space = 4
ci_grad_trust_region = 3
with_dep4 0
natorb = False
canonicalization = True
chkfile = ./scratch/171122/tmpSXVjv1
max_memory 4000 MB (current use 435 MB)
internal_rotation = False

******** SHCI flags ********
executable             = /home/bamu3429/softwares/dice/Dice
mpiprefix              = mpirun -np 28
scratchDirectory       = ./scratch/171122
integralFile           = ./FCIDUMP
configFile             = ./input.dat
outputFile             = ./output.dat
maxIter                = 6
sweep_iter             = []
sweep_epsilon          = []
nPTiter                = 0
Stochastic             = True
fullrestart            = False
restart                = False
num_thrds              = 12
memory                 = None

CASCI E = -70.696076066933  S^2 = 3.7500000
Set conv_tol_grad to 0.000316228
macro iter 1 (21 JK  4 micro), CASSCF E = -70.7019029737924  dE = -0.0058269069  S^2 = 3.7500000
               |grad[o]|=0.00147  |grad[c]|= None  |ddm|=0.0248
macro iter 2 (21 JK  4 micro), CASSCF E = -70.714748026612  dE = -0.012845053  S^2 = 3.7500000
               |grad[o]|=0.0107  |grad[c]|= None  |ddm|=0.0796
macro iter 3 (17 JK  4 micro), CASSCF E = -70.7184754897885  dE = -0.0037274632  S^2 = 3.7500000
               |grad[o]|=0.0133  |grad[c]|= None  |ddm|=0.0248
macro iter 4 (6 JK  2 micro), CASSCF E = -70.7184756397785  dE = -1.4999007e-07  S^2 = 3.7500000
               |grad[o]|=0.000235  |grad[c]|= None  |ddm|=0.000186
macro iter 5 (1 JK  1 micro), CASSCF E = -70.7184756397785  dE = 0  S^2 = 3.7500000
               |grad[o]|=2.08e-05  |grad[c]|= None  |ddm|=    0
1-step CASSCF converged in 5 macro (66 JK 15 micro) steps
CASSCF canonicalization
CASSCF energy = -70.7184756397785


--------------------------------------------------
                 ICMPSPT CALCULATION              
--------------------------------------------------

Perturbation type: MRLCC
With fully internally contracted scheme
With third order correction

Preparing necessary RDMs
......production of RDMs took       6.03 sec
Reading binary 4RDM from DICE
......reading the RDM took          1.21 sec

(GOOD) Trace 4RDM:    120.0 =    5*    4*    3*    2
(GOOD) Trace 3RDM:     60.0 =    5*    4*    3
(GOOD) Trace 2RDM:     20.0 =    5*    4
(GOOD) Trace 1RDM:      5.0 =    5

Producing the integrals
......production of INT took    2145.84 sec

Energy_core =  -64.6124884765
Energy      =  -70.7184756398

WARNING: Have to use natural orbitals from CAASCF
         offdiagonal elements: 0.757250497905

Basic ingredients written to int/
......savings of INGREDIENTS took     449.31 sec

Second-order:
perturber CCVV --        -0.173965930
perturber CCAV --        -0.069737835
perturber ACVV --        -0.153977297
perturber CCAA --        -0.006332616
perturber AAVV --        -0.048433574
perturber CAAV --        -0.061411296
perturber AAAV --        -0.009503381
perturber AAAC --        -0.002762800
Total:                   -0.526124731

Third-order:             -0.001320482

Total PT       --        -0.527445212

