 &FCI NORB=6 ,NELEC=8 ,MS2=4,
  ORBSYM=1,1,1,1,1,1,
  ISYM=1,
 &END
  8.876488673888e-01    1  1  1  1
  1.508690979883e-05    2  1  1  1
  7.763952897761e-03    2  1  2  1
  3.597890634533e-01    2  2  1  1
 -1.718758618764e-08    2  2  2  1
  2.811506466192e-01    2  2  2  2
 -1.759598738874e-06    3  1  1  1
 -1.447203735987e-03    3  1  2  1
 -2.167927995941e-07    3  1  2  2
  4.009379353063e-02    3  1  3  1
  1.567769645096e-03    3  2  1  1
 -1.003277854736e-07    3  2  2  1
  1.076090674359e-03    3  2  2  2
 -3.059673177343e-06    3  2  3  1
  6.991614578454e-03    3  2  3  2
  8.280029552900e-01    3  3  1  1
  2.700863768310e-06    3  3  2  1
  3.622149718293e-01    3  3  2  2
 -2.090603371296e-06    3  3  3  1
  4.231502627611e-03    3  3  3  2
  9.340776750737e-01    3  3  3  3
 -6.100840931613e-11    4  1  1  1
 -6.697093402142e-10    4  1  2  1
 -1.803878358588e-11    4  1  2  2
 -1.505725464067e-11    4  1  3  1
  2.303686938691e-10    4  1  3  2
  6.077396982018e-11    4  1  3  3
  3.520176300954e-02    4  1  4  1
 -1.151416427370e-08    4  2  1  1
  2.332816794975e-11    4  2  2  1
 -2.175020389632e-09    4  2  2  2
 -4.234827650941e-10    4  2  3  1
 -6.334865881511e-11    4  2  3  2
 -1.248759242711e-08    4  2  3  3
 -1.000856815642e-03    4  2  4  1
  6.964108021336e-03    4  2  4  2
  4.034065029377e-11    4  3  1  1
  2.286221485293e-10    4  3  2  1
  4.171051082395e-11    4  3  2  2
 -5.888839859596e-11    4  3  3  1
 -4.654047882548e-10    4  3  3  2
  2.246202043406e-10    4  3  3  3
 -9.425462529539e-03    4  3  4  1
  5.114937978936e-04    4  3  4  2
  2.582458675816e-02    4  3  4  3
  8.378220940995e-01    4  4  1  1
 -1.066727334053e-03    4  4  2  1
  3.619819278618e-01    4  4  2  2
  1.822095176205e-02    4  4  3  1
  3.644069555840e-03    4  4  3  2
  8.810022130725e-01    4  4  3  3
 -1.861472936375e-10    4  4  4  1
 -1.336100260659e-08    4  4  4  2
  2.476586747821e-10    4  4  4  3
  9.305765999213e-01    4  4  4  4
 -1.064601867180e-10    5  1  1  1
  1.176188496209e-09    5  1  2  1
 -3.175476420411e-11    5  1  2  2
  1.981216898496e-11    5  1  3  1
  4.069039122914e-10    5  1  3  2
  1.340393052007e-10    5  1  3  3
  9.921093677767e-11    5  1  4  1
 -4.845361726387e-09    5  1  4  2
 -4.245025800429e-08    5  1  4  3
 -3.590377950507e-11    5  1  4  4
  3.516167501091e-02    5  1  5  1
  2.021940196847e-08    5  2  1  1
  4.128935349456e-11    5  2  2  1
  3.817061468967e-09    5  2  2  2
 -7.441270110150e-10    5  2  3  1
  1.110615405864e-10    5  2  3  2
  2.191942593331e-08    5  2  3  3
 -4.174799376601e-09    5  2  4  1
 -6.632090866382e-12    5  2  4  2
 -2.011413838364e-10    5  2  4  3
  2.098742908063e-08    5  2  4  4
  1.000981517306e-03    5  2  5  1
  6.964155484219e-03    5  2  5  2
 -5.630074598556e-11    5  3  1  1
  4.039339244935e-10    5  3  2  1
 -7.374522721707e-11    5  3  2  2
 -1.145368570170e-10    5  3  3  1
  8.190686158604e-10    5  3  3  2
 -3.958511028582e-10    5  3  3  3
 -4.260788431270e-08    5  3  4  1
 -2.019306900406e-10    5  3  4  2
  1.109952108198e-12    5  3  4  3
 -4.771706292078e-10    5  3  4  4
  9.450520293656e-03    5  3  5  1
  5.139140425057e-04    5  3  5  2
  2.586860493110e-02    5  3  5  3
 -2.253821549035e-11    5  4  1  1
 -4.837528925330e-09    5  4  2  1
  6.779378553138e-11    5  4  2  2
  8.221795459518e-08    5  4  3  1
  3.923351177745e-10    5  4  3  2
  1.945550470901e-10    5  4  3  3
  7.018440790285e-11    5  4  4  1
  1.270468531737e-09    5  4  4  2
  2.683319816773e-11    5  4  4  3
 -1.308441548657e-09    5  4  4  4
  3.931502058491e-11    5  4  5  1
 -7.232900781381e-10    5  4  5  2
 -1.080483057715e-11    5  4  5  3
  3.656232931481e-02    5  4  5  4
  8.379002029957e-01    5  5  1  1
  1.080151465594e-03    5  5  2  1
  3.619803362202e-01    5  5  2  2
 -1.827042726231e-02    5  5  3  1
  3.644545997756e-03    5  5  3  2
  8.809090722387e-01    5  5  3  3
 -2.102394213764e-11    5  5  4  1
 -1.195424600470e-08    5  5  4  2
  2.624900216139e-10    5  5  4  3
  8.581127872827e-01    5  5  4  4
 -3.263282244171e-10    5  5  5  1
  2.345424477333e-08    5  5  5  2
 -4.377310750568e-10    5  5  5  3
  1.710991415075e-09    5  5  5  4
  9.305581518581e-01    5  5  5  5
 -2.557875160203e-10    6  1  2  1
 -1.650144553249e-10    6  1  3  1
 -1.195453209127e-10    6  1  4  1
  4.870333610359e-12    6  1  4  2
  6.753335104917e-11    6  1  4  3
 -2.358902158355e-10    6  1  4  4
  6.154957832711e-11    6  1  5  1
  1.315010966119e-12    6  1  5  2
  3.465334316488e-11    6  1  5  3
  2.189651958473e-05    6  1  5  4
  2.369044446299e-10    6  1  5  5
  1.930763920315e-02    6  1  6  1
 -1.082630804688e-08    6  2  1  1
 -1.861488935902e-09    6  2  2  2
 -1.002326548251e-12    6  2  3  1
 -4.228750146561e-11    6  2  3  2
 -1.035228110786e-08    6  2  3  3
 -6.643194561621e-10    6  2  4  1
  2.453013782070e-11    6  2  4  2
  3.970776389469e-10    6  2  4  3
 -1.348542715418e-08    6  2  4  4
 -3.783272652919e-10    6  2  5  1
 -1.416874495533e-11    6  2  5  2
 -2.270605608007e-10    6  2  5  3
  6.500019432474e-04    6  2  5  4
 -7.627240852697e-09    6  2  5  5
  1.398178827831e-06    6  2  6  1
  6.914100173795e-03    6  2  6  2
  4.363834521392e-11    6  3  1  1
 -5.918269728454e-11    6  3  2  2
 -7.589449889282e-10    6  3  3  2
 -1.077042988033e-10    6  3  3  3
 -1.275586317345e-10    6  3  4  1
 -7.759771927269e-10    6  3  4  2
 -1.410897138426e-11    6  3  4  3
  8.403355072853e-08    6  3  4  4
 -6.411184322893e-11    6  3  5  1
  4.420988180108e-10    6  3  5  2
  7.509130309926e-12    6  3  5  3
 -1.869790499666e-02    6  3  5  4
 -8.447717603843e-08    6  3  5  5
 -2.506124997909e-05    6  3  6  1
 -7.169364405061e-04    6  3  6  2
  4.151581183387e-02    6  3  6  3
 -1.500761540051e-11    6  4  1  1
  6.665617717221e-10    6  4  2  1
 -5.793226370460e-11    6  4  2  2
  6.446570322602e-11    6  4  3  1
  3.988817391166e-10    6  4  3  2
 -2.434939931661e-10    6  4  3  3
  5.390005597240e-11    6  4  4  1
 -4.370976478101e-09    6  4  4  2
 -4.299456463551e-08    6  4  4  3
 -2.689150177362e-10    6  4  4  4
  1.604818626215e-02    6  4  5  1
  8.282312475599e-04    6  4  5  2
  9.575805429467e-03    6  4  5  3
  1.486697276020e-11    6  4  5  4
 -6.136388273310e-10    6  4  5  5
  5.733494335289e-11    6  4  6  1
 -7.149447274498e-10    6  4  6  2
 -3.064656443817e-11    6  4  6  3
  3.634900498611e-02    6  4  6  4
  2.102746244221e-11    6  5  1  1
  3.796781785394e-10    6  5  2  1
  3.256777244590e-11    6  5  2  2
  3.173701251059e-11    6  5  3  1
 -2.263056496934e-10    6  5  3  2
  1.390168935108e-10    6  5  3  3
 -1.606843629446e-02    6  5  4  1
  8.273582710065e-04    6  5  4  2
  9.538251274121e-03    6  5  4  3
  3.338054289238e-10    6  5  4  4
 -5.403194276498e-11    6  5  5  1
  3.089363242028e-09    6  5  5  2
  4.313615805503e-08    6  5  5  3
 -1.415665261940e-11    6  5  5  4
  1.525151346718e-10    6  5  5  5
  1.123794122684e-10    6  5  6  1
  1.255263531325e-09    6  5  6  2
  5.399600150714e-11    6  5  6  3
 -1.279500304804e-11    6  5  6  4
  3.634848658837e-02    6  5  6  5
  8.663626014606e-01    6  6  1  1
  1.014611957462e-05    6  6  2  1
  3.612298309976e-01    6  6  2  2
  4.885057048988e-05    6  6  3  1
  2.093136547737e-03    6  6  3  2
  8.442177184514e-01    6  6  3  3
 -1.782552753566e-10    6  6  4  1
 -1.187288622309e-08    6  6  4  2
  1.233633773041e-10    6  6  4  3
  8.542604337481e-01    6  6  4  4
 -3.353664638924e-10    6  6  5  1
  2.084382296419e-08    6  6  5  2
 -2.168379951906e-10    6  6  5  3
  4.452200406468e-10    6  6  5  4
  8.542509737318e-01    6  6  5  5
 -1.174637882262e-08    6  6  6  2
 -2.631355808190e-10    6  6  6  3
 -2.687943890842e-10    6  6  6  4
  1.523280385870e-10    6  6  6  5
  9.230311353163e-01    6  6  6  6
 -5.449875272676e+00    1  1  0  0
 -4.209966829368e-05    2  1  0  0
 -2.688597140175e+00    2  2  0  0
  3.579058863938e-06    3  1  0  0
 -1.927058565051e-02    3  2  0  0
 -5.550844946468e+00    3  3  0  0
  3.497293076415e-10    4  1  0  0
  6.837515215781e-08    4  2  0  0
 -9.436698013058e-10    4  3  0  0
 -5.545750198894e+00    4  4  0  0
  6.083226015235e-10    5  1  0  0
 -1.200335279898e-07    5  2  0  0
  1.661975226688e-09    5  3  0  0
 -9.483211102157e-10    5  4  0  0
 -5.545714852645e+00    5  5  0  0
 -2.309383809780e-12    6  1  0  0
  6.032783662945e-08    6  2  0  0
  6.144551592106e-10    6  3  0  0
  1.292579722690e-09    6  4  0  0
 -7.325769225578e-10    6  5  0  0
 -5.529495993080e+00    6  6  0  0
   -101.629924881322   0  0  0  0
