#INFO: **** input file is /projects/bamu3429/BENCHMARK/fresh_atoms/MRPT/vtz/atoms/Fe_0/mrpt.py ****
import json
from pyscf import gto,scf,mcscf, fci, lo, ci, cc
from pyscf.scf import ROHF, UHF,ROKS
import numpy as np
import pandas as pd

# THIS IS WERE IT STARTS ====================================

df=json.load(open("../../../trail.json"))

spins={'Sc':1, 'Ti':2, 'V':3, 'Cr':6, 'Mn':5, 'Fe':4, 'Cu':1}

nd={'Sc':(1,0), 'Ti':(2,0), 'V':(3,0), 'Cr':(5,0), 'Mn':(5,0), 'Fe':(5,1), 'Cu':(5,5)}

cas={'Sc':3, 'Ti':4, 'V':5, 'Cr':6, 'Mn':7, 'Fe':8, 'Cu':11}

datacsv={}
for nm in ['atom','charge','method','basis','pseudopotential','hf',
           'totalenergy','totalenergy-stocherr','totalenergy-syserr']:
  datacsv[nm]=[]

basis='vtz'
el='Fe'
charge=0

mol=gto.Mole()
mol.ecp={}
mol.basis={}
mol.ecp[el]=gto.basis.parse_ecp(df[el]['ecp'])
mol.basis[el]=gto.basis.parse(df[el][basis])
mol.charge=charge
if el == 'Cr' or el == 'Cu':
  mol.spin=spins[el]-charge
else:
  mol.spin=spins[el]+charge
mol.build(atom="%s 0. 0. 0."%el,verbose=4)

m=ROHF(mol)
m.level_shift=1000.0
dm=m.from_chk("../../../../HF/atoms/"+el+basis+str(charge)+".chk")
hf=m.kernel(dm)
m.analyze()

from pyscf.shciscf import shci
mc = shci.SHCISCF(m, 6, cas[el]-charge)
#mc.fcisolver.conv_tol = 1e-14
mc.fcisolver.mpiprefix="srun -n20"
mc.fcisolver.num_thrds=12
mc.verbose = 4
cas=mc.kernel()[0]
 
from pyscf.icmpspt import icmpspt
pt=icmpspt.icmpspt(mc,rdmM=500, PTM=1000,\
                          pttype="MRLCC",\
                          third_order=True,\
                          fully_ic=True,\
                          do_dm4=True)

datacsv['atom'].append(el)
datacsv['charge'].append(charge)
datacsv['method'].append('MRPT')
datacsv['basis'].append(basis)
datacsv['pseudopotential'].append('trail')
datacsv['hf'].append(hf)
datacsv['totalenergy'].append(cas+pt)
datacsv['totalenergy-stocherr'].append(0.0)
datacsv['totalenergy-syserr'].append(0.0)
pd.DataFrame(datacsv).to_csv(el+".csv",index=False)

#INFO: ******************** input file end ********************


System: ('Linux', 'bnode0302.rc.int.colorado.edu', '3.10.0-514.41.1.el7.x86_64', '#1 SMP Wed Jan 17 10:26:16 EST 2018', 'x86_64', 'x86_64')  Threads 28
Python 2.7.11 (default, Mar 22 2016, 01:42:54) 
[GCC Intel(R) C++ gcc 4.8 mode]
numpy 1.11.1  scipy 0.17.1
Date: Wed Apr 18 16:27:16 2018
PySCF version 1.4.6
PySCF path  /projects/bamu3429/softwares/pyscf_uptodate/pyscf
GIT ORIG_HEAD f3591ef22170896a4cdc2aadaa6f5da388ffcadb
GIT HEAD      ref: refs/heads/master
GIT master branch  1847583fb1d2472321833d3c71c8b7008e5fabf5

[INPUT] VERBOSE 4
[INPUT] num atoms = 1
[INPUT] num electrons = 16
[INPUT] charge = 0
[INPUT] spin (= nelec alpha-beta = 2S) = 4
[INPUT] symmetry False subgroup None
[INPUT]  1 Fe     0.000000000000   0.000000000000   0.000000000000 AA    0.000000000000   0.000000000000   0.000000000000 Bohr
[INPUT] ---------------- BASIS SET ---------------- 
[INPUT] l, kappa, [nprim/nctr], expnt,             c_1 c_2 ...
[INPUT] Fe
[INPUT] 0    0    [12   /1   ]  41.79315189       0.013363
                                21.4479766        -0.225831
                                13.50597996       1.092302
                                9.47978339        -1.379238
                                4.48116767        0.183004
                                2.00533715        0.377557
                                1.21557711        0.591529
                                0.52042955        0.236703
                                0.24120153        -0.029854
                                0.11142434        0.02048
                                0.05213724        -0.006828
                                0.02419858        0.002604
[INPUT] 0    0    [12   /1   ]  41.79315189       -0.002034
                                21.4479766        0.04181
                                13.50597996       -0.22265
                                9.47978339        0.296462
                                4.48116767        -0.039261
                                2.00533715        -0.090727
                                1.21557711        -0.230375
                                0.52042955        -0.197211
                                0.24120153        0.111234
                                0.11142434        0.439139
                                0.05213724        0.516418
                                0.02419858        0.126845
[INPUT] 0    0    [12   /1   ]  41.79315189       -0.004624
                                21.4479766        0.139122
                                13.50597996       -0.88629
                                9.47978339        1.342491
                                4.48116767        -0.386645
                                2.00533715        -1.289136
                                1.21557711        0.203208
                                0.52042955        0.587093
                                0.24120153        0.75499
                                0.11142434        0.148125
                                0.05213724        -0.57141
                                0.02419858        -0.318371
[INPUT] 0    0    [12   /1   ]  41.79315189       -0.003085
                                21.4479766        0.157954
                                13.50597996       -1.176019
                                9.47978339        1.974187
                                4.48116767        -0.963904
                                2.00533715        -2.385892
                                1.21557711        2.080105
                                0.52042955        1.415026
                                0.24120153        -1.191846
                                0.11142434        -1.007091
                                0.05213724        0.554221
                                0.02419858        0.59334
[INPUT] 0    0    [1    /1   ]  0.02419858           1
[INPUT] 0    0    [1    /1   ]  0.01123134           1
[INPUT] 1    0    [12   /1   ]  66.19105244       0.00032
                                34.58074578       -0.003142
                                17.77781378       0.029707
                                9.38371315        -0.152873
                                5.85185491        0.094627
                                3.39352009        0.227547
                                1.80084269        0.448024
                                0.88349057        0.318306
                                0.45376195        0.097682
                                0.18864625        0.012314
                                0.07756623        -0.001004
                                0.03189313        0.000474
[INPUT] 1    0    [12   /1   ]  66.19105244       -1.8e-05
                                34.58074578       0.000416
                                17.77781378       -0.005911
                                9.38371315        0.03555
                                5.85185491        -0.025962
                                3.39352009        -0.059781
                                1.80084269        -0.122371
                                0.88349057        -0.102075
                                0.45376195        0.039881
                                0.18864625        0.346137
                                0.07756623        0.528115
                                0.03189313        0.237416
[INPUT] 1    0    [12   /1   ]  66.19105244       -0.000861
                                34.58074578       0.002748
                                17.77781378       0.01593
                                9.38371315        -0.209763
                                5.85185491        0.179034
                                3.39352009        0.814145
                                1.80084269        0.03855
                                0.88349057        -0.875838
                                0.45376195        -0.34746
                                0.18864625        0.631788
                                0.07756623        0.399045
                                0.03189313        0.003561
[INPUT] 1    0    [12   /1   ]  66.19105244       -0.001607
                                34.58074578       0.006226
                                17.77781378       0.025483
                                9.38371315        -0.54041
                                5.85185491        1.16772
                                3.39352009        0.772818
                                1.80084269        -1.572667
                                0.88349057        -0.61263
                                0.45376195        1.561245
                                0.18864625        -0.107594
                                0.07756623        -0.646326
                                0.03189313        0.002096
[INPUT] 1    0    [1    /1   ]  0.03189313           1
[INPUT] 1    0    [1    /1   ]  0.01311358           1
[INPUT] 2    0    [10   /1   ]  58.21685909       0.000311
                                24.96806153       -0.010386
                                12.44413704       0.126915
                                5.48395408        0.166806
                                2.79137309        0.262721
                                1.34407118        0.316542
                                0.61230651        0.280074
                                0.27095461        0.158069
                                0.12811374        0.049028
                                0.05904405        0.008369
[INPUT] 2    0    [10   /1   ]  58.21685909       0.000374
                                24.96806153       0.007401
                                12.44413704       -0.12958
                                5.48395408        -0.233171
                                2.79137309        -0.387571
                                1.34407118        -0.056586
                                0.61230651        0.33938
                                0.27095461        0.403227
                                0.12811374        0.20401
                                0.05904405        0.046291
[INPUT] 2    0    [10   /1   ]  58.21685909       -0.001716
                                24.96806153       -0.000551
                                12.44413704       0.130748
                                5.48395408        0.429828
                                2.79137309        0.259447
                                1.34407118        -0.684658
                                0.61230651        -0.396877
                                0.27095461        0.349872
                                0.12811374        0.4289
                                0.05904405        0.113763
[INPUT] 2    0    [1    /1   ]  0.05904405           1
[INPUT] 2    0    [1    /1   ]  0.02721175           1
[INPUT] 3    0    [1    /1   ]  3.759443             1
[INPUT] 3    0    [1    /1   ]  1.028316             1
[INPUT] 3    0    [1    /1   ]  0.28127405           1
[INPUT] 4    0    [1    /1   ]  3.347806             1
[INPUT] 4    0    [1    /1   ]  0.91572139           1
nuclear repulsion = 0
number of shells = 22
number of NR pGTOs = 399
number of NR cGTOs = 88
basis = {'Fe': [[0, [41.79315189, 0.013363], [21.4479766, -0.225831], [13.50597996, 1.092302], [9.47978339, -1.379238], [4.48116767, 0.183004], [2.00533715, 0.377557], [1.21557711, 0.591529], [0.52042955, 0.236703], [0.24120153, -0.029854], [0.11142434, 0.02048], [0.05213724, -0.006828], [0.02419858, 0.002604]], [0, [41.79315189, -0.002034], [21.4479766, 0.04181], [13.50597996, -0.22265], [9.47978339, 0.296462], [4.48116767, -0.039261], [2.00533715, -0.090727], [1.21557711, -0.230375], [0.52042955, -0.197211], [0.24120153, 0.111234], [0.11142434, 0.439139], [0.05213724, 0.516418], [0.02419858, 0.126845]], [0, [41.79315189, -0.004624], [21.4479766, 0.139122], [13.50597996, -0.88629], [9.47978339, 1.342491], [4.48116767, -0.386645], [2.00533715, -1.289136], [1.21557711, 0.203208], [0.52042955, 0.587093], [0.24120153, 0.75499], [0.11142434, 0.148125], [0.05213724, -0.57141], [0.02419858, -0.318371]], [0, [41.79315189, -0.003085], [21.4479766, 0.157954], [13.50597996, -1.176019], [9.47978339, 1.974187], [4.48116767, -0.963904], [2.00533715, -2.385892], [1.21557711, 2.080105], [0.52042955, 1.415026], [0.24120153, -1.191846], [0.11142434, -1.007091], [0.05213724, 0.554221], [0.02419858, 0.59334]], [0, [0.02419858, 1.0]], [0, [0.01123134, 1.0]], [1, [66.19105244, 0.00032], [34.58074578, -0.003142], [17.77781378, 0.029707], [9.38371315, -0.152873], [5.85185491, 0.094627], [3.39352009, 0.227547], [1.80084269, 0.448024], [0.88349057, 0.318306], [0.45376195, 0.097682], [0.18864625, 0.012314], [0.07756623, -0.001004], [0.03189313, 0.000474]], [1, [66.19105244, -1.8e-05], [34.58074578, 0.000416], [17.77781378, -0.005911], [9.38371315, 0.03555], [5.85185491, -0.025962], [3.39352009, -0.059781], [1.80084269, -0.122371], [0.88349057, -0.102075], [0.45376195, 0.039881], [0.18864625, 0.346137], [0.07756623, 0.528115], [0.03189313, 0.237416]], [1, [66.19105244, -0.000861], [34.58074578, 0.002748], [17.77781378, 0.01593], [9.38371315, -0.209763], [5.85185491, 0.179034], [3.39352009, 0.814145], [1.80084269, 0.03855], [0.88349057, -0.875838], [0.45376195, -0.34746], [0.18864625, 0.631788], [0.07756623, 0.399045], [0.03189313, 0.003561]], [1, [66.19105244, -0.001607], [34.58074578, 0.006226], [17.77781378, 0.025483], [9.38371315, -0.54041], [5.85185491, 1.16772], [3.39352009, 0.772818], [1.80084269, -1.572667], [0.88349057, -0.61263], [0.45376195, 1.561245], [0.18864625, -0.107594], [0.07756623, -0.646326], [0.03189313, 0.002096]], [1, [0.03189313, 1.0]], [1, [0.01311358, 1.0]], [2, [58.21685909, 0.000311], [24.96806153, -0.010386], [12.44413704, 0.126915], [5.48395408, 0.166806], [2.79137309, 0.262721], [1.34407118, 0.316542], [0.61230651, 0.280074], [0.27095461, 0.158069], [0.12811374, 0.049028], [0.05904405, 0.008369]], [2, [58.21685909, 0.000374], [24.96806153, 0.007401], [12.44413704, -0.12958], [5.48395408, -0.233171], [2.79137309, -0.387571], [1.34407118, -0.056586], [0.61230651, 0.33938], [0.27095461, 0.403227], [0.12811374, 0.20401], [0.05904405, 0.046291]], [2, [58.21685909, -0.001716], [24.96806153, -0.000551], [12.44413704, 0.130748], [5.48395408, 0.429828], [2.79137309, 0.259447], [1.34407118, -0.684658], [0.61230651, -0.396877], [0.27095461, 0.349872], [0.12811374, 0.4289], [0.05904405, 0.113763]], [2, [0.05904405, 1.0]], [2, [0.02721175, 1.0]], [3, [3.759443, 1.0]], [3, [1.028316, 1.0]], [3, [0.28127405, 1.0]], [4, [3.347806, 1.0]], [4, [0.91572139, 1.0]]]}
ecp = {'Fe': [10, [[-1, [[], [[16.90683491, 16.0]], [[18.40258134, 26847.81569895], [6.30300831, -133.54888707], [18.42848726, -26765.4049232], [18.43432023, 1.00742417]], [[7.01300654, 270.50935856]]]], [0, [[], [], [[9.62463353, 20308.8999348], [9.1270955, -17595.21707731], [7.5416384, 1884.69012383], [12.70900949, -4483.50209856], [8.14863339, -1094.38597968], [16.27611739, 1032.95376659]], []]], [1, [[], [], [[11.36514719, -905.00711112], [14.56762424, 34640.9358259], [15.05861359, -42299.94223895], [17.41337089, 10633.68808757], [18.3746752, -5844.19723669], [17.04734437, 3803.80414779]], []]], [2, [[], [], [[10.13935738, -11031.18647055], [13.45796076, 16711.37502047], [10.97387824, 37989.95033676], [11.92919033, -41782.92514683], [17.7123012, 3812.58339812], [17.32108913, -5718.00854971]], []]]]]}
CPU time:         3.66


******** <class 'pyscf.scf.rohf.ROHF'> flags ********
method = ROHF
initial guess = minao
damping factor = 0
level shift factor = 1000.0
DIIS = <class 'pyscf.scf.diis.CDIIS'>
DIIS start cycle = 1
DIIS space = 8
SCF tol = 1e-09
SCF gradient tol = None
max. SCF cycles = 50
direct_scf = True
direct_scf_tol = 1e-13
chkfile to save SCF result = /rc_scratch/bamu3429/tmpVRqXKD
max_memory 4000 MB (current use 161 MB)
num. doubly occ = 6  num. singly occ = 4
Set gradient conv threshold to 3.16228e-05
init E= -123.038572469463
  HOMO = 499.856605093668  LUMO = 1000.01971587351
cycle= 1 E= -123.038572469464  delta_E= -5.4e-13  |g|= 1.04e-05  |ddm|= 2.53e-08
  HOMO = -0.143394905417973  LUMO = 0.0197158734807981
Extra cycle  E= -123.038572469476  delta_E= -1.18e-11  |g|= 4.24e-06  |ddm|= 1.72e-05
converged SCF energy = -123.038572469476
**** MO energy ****
                Roothaan           | alpha              | beta
MO #1   energy= -4.41472756019786  | -4.60135893583517  | -4.22809616081594  occ= 2
MO #2   energy= -2.79870685071723  | -3.07249067355275  | -2.52492302788173  occ= 2
MO #3   energy= -2.79196142692657  | -2.99447196070201  | -2.58945089315113  occ= 2
MO #4   energy= -2.79194098036688  | -2.99426668677034  | -2.58961527396342  occ= 2
MO #5   energy= -0.545206879349473 | -0.610089304868801 | -0.480324453819011 occ= 2
MO #6   energy= -0.262142196521179 | -0.276059245111745 | -0.248225245746361 occ= 2
MO #7   energy= -0.190931112409847 | -0.704574471150849 | 0.322712310708238  occ= 1
MO #8   energy= -0.17901222316304  | -0.693668912930135 | 0.335643976686865  occ= 1
MO #9   energy= -0.178917400480279 | -0.693585778917721 | 0.335751447993086  occ= 1
MO #10  energy= -0.143394905417973 | -0.662017142368256 | 0.375227302707295  occ= 1
MO #11  energy= 0.0197158734807981 | 0.0184394691363311 | 0.0209922778252679 occ= 0
MO #12  energy= 0.0209277886861572 | 0.020088367523175  | 0.021767209849144  occ= 0
MO #13  energy= 0.0209309240259912 | 0.0200925889481938 | 0.0217692591037941 occ= 0
MO #14  energy= 0.0236179406923518 | 0.0231123079283648 | 0.0241235730561963 occ= 0
MO #15  energy= 0.0644171438758189 | 0.0610126197154354 | 0.0678216680362059 occ= 0
MO #16  energy= 0.0672966343252382 | 0.0646745492515822 | 0.0699187193988971 occ= 0
MO #17  energy= 0.0673044090739005 | 0.0646846349087833 | 0.0699241832390241 occ= 0
MO #18  energy= 0.0824842021763791 | 0.082289015217539  | 0.0826793893182517 occ= 0
MO #19  energy= 0.0825708065814704 | 0.0823702530587377 | 0.0827713785741427 occ= 0
MO #20  energy= 0.0825716984028811 | 0.0823711044791001 | 0.082772273614335  occ= 0
MO #21  energy= 0.0828157040691654 | 0.0827401873920625 | 0.0828912207179006 occ= 0
MO #22  energy= 0.0828410745288386 | 0.0826253930936033 | 0.0830567575560665 occ= 0
MO #23  energy= 0.19529487926729   | 0.189449694472189  | 0.201140062306637  occ= 0
MO #24  energy= 0.250592482105026  | 0.246087060430509  | 0.255097910491361  occ= 0
MO #25  energy= 0.251311846860394  | 0.246683914185967  | 0.255939965931491  occ= 0
MO #26  energy= 0.251318447869054  | 0.246689637366334  | 0.255947087469538  occ= 0
MO #27  energy= 0.251807312928489  | 0.250234416964628  | 0.253380208793952  occ= 0
MO #28  energy= 0.253611783599441  | 0.248646088965195  | 0.25857748712956   occ= 0
MO #29  energy= 0.264916213812579  | 0.251704183882146  | 0.278128243743004  occ= 0
MO #30  energy= 0.27172940279212   | 0.26131415420212   | 0.282144651382118  occ= 0
MO #31  energy= 0.271747983214427  | 0.261340732649239  | 0.282155233779614  occ= 0
MO #32  energy= 0.916715186355286  | 0.894213690067455  | 0.939216680013543  occ= 0
MO #33  energy= 1.02184408401593   | 1.00793632181875   | 1.03575184621325   occ= 0
MO #34  energy= 1.02254265369082   | 1.00921066019804   | 1.03587464718372   occ= 0
MO #35  energy= 1.02255724655273   | 1.00922752208763   | 1.03588697101795   occ= 0
MO #36  energy= 1.02410695021461   | 1.01375408506041   | 1.03445981536882   occ= 0
MO #37  energy= 1.02544347698838   | 1.01063646186574   | 1.04025049211109   occ= 0
MO #38  energy= 1.0280714948833    | 1.01833086971285   | 1.03781212005375   occ= 0
MO #39  energy= 1.02807262677175   | 1.01833085852594   | 1.03781439501756   occ= 0
MO #40  energy= 1.11390238402462   | 1.09635839896544   | 1.13144636914327   occ= 0
MO #41  energy= 1.11540086433427   | 1.0616519252935    | 1.16914981594298   occ= 0
MO #42  energy= 1.11999400805828   | 1.06506997545406   | 1.1749183179523    occ= 0
MO #43  energy= 1.12003503763289   | 1.06510439477222   | 1.17496540384239   occ= 0
MO #44  energy= 1.13528995252202   | 1.07782928183887   | 1.19275063685557   occ= 0
MO #45  energy= 2.03657823177084   | 1.97870124635897   | 2.09445521718271   occ= 0
MO #46  energy= 2.06220415325098   | 2.01750680356466   | 2.10690150293729   occ= 0
MO #47  energy= 2.06227293609473   | 2.01761009784286   | 2.10693577434662   occ= 0
MO #48  energy= 3.45748844611313   | 3.36530290845059   | 3.54967398377567   occ= 0
MO #49  energy= 3.45850029055086   | 3.3759666350521    | 3.5410339460496    occ= 0
MO #50  energy= 3.45853493756007   | 3.37608015286157   | 3.54098972225857   occ= 0
MO #51  energy= 3.46041945167038   | 3.39216264589311   | 3.52867625744765   occ= 0
MO #52  energy= 3.4698859036328    | 3.37276428210198   | 3.56700752516362   occ= 0
MO #53  energy= 3.47254046572122   | 3.40366901026229   | 3.54141192118015   occ= 0
MO #54  energy= 3.47254060257581   | 3.40361368293406   | 3.54146752221756   occ= 0
MO #55  energy= 4.15775284257417   | 4.12496498153036   | 4.19054070410361   occ= 0
MO #56  energy= 4.15896698186198   | 4.1259493456041    | 4.19198461908446   occ= 0
MO #57  energy= 4.15899293497182   | 4.12596209552978   | 4.19202377444717   occ= 0
MO #58  energy= 4.16147712342024   | 4.12680080922806   | 4.19615343765889   occ= 0
MO #59  energy= 4.16574967337331   | 4.13859404428973   | 4.19290530245222   occ= 0
MO #60  energy= 4.17158811090837   | 4.14445453421578   | 4.19872168644719   occ= 0
MO #61  energy= 4.17159941983117   | 4.1444863299405    | 4.19871251147735   occ= 0
MO #62  energy= 4.18300656956248   | 4.16059435327716   | 4.20541878585167   occ= 0
MO #63  energy= 4.18309302453448   | 4.16099507545533   | 4.20519097635219   occ= 0
MO #64  energy= 4.65455180318673   | 4.55382460850091   | 4.75527899369621   occ= 0
MO #65  energy= 4.66003390332482   | 4.62591409704899   | 4.69415370961808   occ= 0
MO #66  energy= 4.66446487506394   | 4.56383670647473   | 4.76509305166628   occ= 0
MO #67  energy= 4.66453568445221   | 4.56390147860471   | 4.76516987738308   occ= 0
MO #68  energy= 4.6908884316519    | 4.5875788019778    | 4.79419806507738   occ= 0
MO #69  energy= 5.19252882306499   | 5.1318603550171    | 5.25319729095535   occ= 0
MO #70  energy= 8.2233770416696    | 8.14651970603268   | 8.30023437730653   occ= 0
MO #71  energy= 8.2611525688164    | 8.20225818776417   | 8.32004694986862   occ= 0
MO #72  energy= 8.26125309431252   | 8.20240552972097   | 8.32010065890406   occ= 0
MO #73  energy= 11.0688081637976   | 10.9400252358747   | 11.1975910917205   occ= 0
MO #74  energy= 11.0724391982864   | 10.9486046783059   | 11.1962737182669   occ= 0
MO #75  energy= 11.0725050258026   | 10.9486926860525   | 11.1963173655528   occ= 0
MO #76  energy= 11.0808415490885   | 10.9844725147589   | 11.1772105834181   occ= 0
MO #77  energy= 11.086772542865    | 10.9511794054291   | 11.2223656803008   occ= 0
MO #78  energy= 11.1007083659166   | 11.0121158984808   | 11.1893008333523   occ= 0
MO #79  energy= 11.1007130570699   | 11.0121100614651   | 11.1893160526747   occ= 0
MO #80  energy= 14.6379693734485   | 14.5547275872203   | 14.7212111623648   occ= 0
MO #81  energy= 14.6401518257754   | 14.5562236382144   | 14.7240800138105   occ= 0
MO #82  energy= 14.6401965399658   | 14.5562366561085   | 14.724156428822    occ= 0
MO #83  energy= 14.6444642656668   | 14.5566952150842   | 14.7322333171315   occ= 0
MO #84  energy= 14.6538234581222   | 14.5848973750889   | 14.7227495411349   occ= 0
MO #85  energy= 14.6646495396942   | 14.5960699279483   | 14.7332291509028   occ= 0
MO #86  energy= 14.6646746351894   | 14.5961477921701   | 14.7332014805674   occ= 0
MO #87  energy= 14.6869235162354   | 14.6302318139675   | 14.7436152185063   occ= 0
MO #88  energy= 14.6871728966537   | 14.6314641619056   | 14.7428816249039   occ= 0
 ** Mulliken pop on meta-lowdin orthogonal AOs  **
 ** Mulliken pop  **
pop of  0Fe 3s        1.99996
pop of  0Fe 4s        1.99786
pop of  0Fe 5s        0.00091
pop of  0Fe 6s        0.00027
pop of  0Fe 7s        0.00029
pop of  0Fe 8s        0.00019
pop of  0Fe 3px       1.99986
pop of  0Fe 3py       1.99986
pop of  0Fe 3pz       1.99984
pop of  0Fe 4px       0.00004
pop of  0Fe 4py       0.00004
pop of  0Fe 4pz       0.00010
pop of  0Fe 5px       0.00001
pop of  0Fe 5py       0.00001
pop of  0Fe 5pz       0.00002
pop of  0Fe 6px       0.00000
pop of  0Fe 6py       0.00000
pop of  0Fe 6pz       0.00001
pop of  0Fe 7px       0.00000
pop of  0Fe 7py       0.00000
pop of  0Fe 7pz       0.00000
pop of  0Fe 8px       0.00000
pop of  0Fe 8py       0.00000
pop of  0Fe 8pz       0.00000
pop of  0Fe 3dxy      1.94740
pop of  0Fe 3dyz      1.00132
pop of  0Fe 3dz^2     0.99766
pop of  0Fe 3dxz      1.04505
pop of  0Fe 3dx2-y2    0.99798
pop of  0Fe 4dxy      0.00011
pop of  0Fe 4dyz      0.00215
pop of  0Fe 4dz^2     0.00252
pop of  0Fe 4dxz      0.00202
pop of  0Fe 4dx2-y2    0.00150
pop of  0Fe 5dxy      0.00001
pop of  0Fe 5dyz      0.00021
pop of  0Fe 5dz^2     0.00025
pop of  0Fe 5dxz      0.00020
pop of  0Fe 5dx2-y2    0.00015
pop of  0Fe 6dxy      0.00005
pop of  0Fe 6dyz      0.00045
pop of  0Fe 6dz^2     0.00054
pop of  0Fe 6dxz      0.00042
pop of  0Fe 6dx2-y2    0.00034
pop of  0Fe 7dxy      0.00000
pop of  0Fe 7dyz      0.00002
pop of  0Fe 7dz^2     0.00003
pop of  0Fe 7dxz      0.00002
pop of  0Fe 7dx2-y2    0.00002
pop of  0Fe 4fy^3     0.00002
pop of  0Fe 4fxyz     0.00000
pop of  0Fe 4fyz^2    0.00001
pop of  0Fe 4fz^3     0.00001
pop of  0Fe 4fxz^2    0.00000
pop of  0Fe 4fzx^2    0.00000
pop of  0Fe 4fx^3     0.00002
pop of  0Fe 5fy^3     0.00004
pop of  0Fe 5fxyz     0.00000
pop of  0Fe 5fyz^2    0.00001
pop of  0Fe 5fz^3     0.00001
pop of  0Fe 5fxz^2    0.00000
pop of  0Fe 5fzx^2    0.00001
pop of  0Fe 5fx^3     0.00004
pop of  0Fe 6fy^3     0.00001
pop of  0Fe 6fxyz     0.00000
pop of  0Fe 6fyz^2    0.00000
pop of  0Fe 6fz^3     0.00000
pop of  0Fe 6fxz^2    0.00000
pop of  0Fe 6fzx^2    0.00000
pop of  0Fe 6fx^3     0.00001
pop of  0Fe 5g-4      0.00000
pop of  0Fe 5g-3      0.00000
pop of  0Fe 5g-2      0.00000
pop of  0Fe 5g-1      0.00001
pop of  0Fe 5g 0      0.00001
pop of  0Fe 5g 1      0.00001
pop of  0Fe 5g 2      0.00000
pop of  0Fe 5g 3      0.00000
pop of  0Fe 5g 4      0.00000
pop of  0Fe 6g-4      0.00000
pop of  0Fe 6g-3      0.00000
pop of  0Fe 6g-2      0.00001
pop of  0Fe 6g-1      0.00001
pop of  0Fe 6g 0      0.00001
pop of  0Fe 6g 1      0.00001
pop of  0Fe 6g 2      0.00000
pop of  0Fe 6g 3      0.00000
pop of  0Fe 6g 4      0.00000
 ** Mulliken atomic charges  **
charge of  0Fe =     -0.00000

******** <class 'pyscf.mcscf.mc1step.CASSCF'> flags ********
CAS (6e+2e, 6o), ncore = 4, nvir = 78
max_cycle_macro = 50
max_cycle_micro = 4
conv_tol = 1e-07
conv_tol_grad = None
orbital rotation max_stepsize = 0.02
augmented hessian ah_max_cycle = 30
augmented hessian ah_conv_tol = 1e-12
augmented hessian ah_linear dependence = 1e-14
augmented hessian ah_level shift = 0
augmented hessian ah_start_tol = 2.5
augmented hessian ah_start_cycle = 3
augmented hessian ah_grad_trust_region = 3
kf_trust_region = 3
kf_interval = 4
ci_response_space = 4
ci_grad_trust_region = 3
with_dep4 0
natorb = False
canonicalization = True
sorting_mo_energy = False
chkfile = ./scratch/133284/tmpKNIDbt
max_memory 4000 MB (current use 254 MB)
internal_rotation = False

******** SHCI flags ********
executable             = /home/bamu3429/softwares/dice/Dice
mpiprefix              = srun -n20
scratchDirectory       = ./scratch/133284
integralFile           = ./FCIDUMP
configFile             = ./input.dat
outputFile             = ./output.dat
maxIter                = 6
sweep_iter             = []
sweep_epsilon          = []
nPTiter                = 0
Stochastic             = True
fullrestart            = False
restart                = False
num_thrds              = 12
memory                 = None

CASCI E = -123.038572469475  S^2 = 6.0000000
Set conv_tol_grad to 0.000316228
macro iter 1 (1 JK  1 micro), CASSCF E = -123.038572469475  dE = 0  S^2 = 6.0000000
               |grad[o]|=3.77e-06  |grad[c]|= None  |ddm|=    0
1-step CASSCF converged in 1 macro (1 JK 1 micro) steps
CASSCF canonicalization
CASSCF energy = -123.038572469475


--------------------------------------------------
                 ICMPSPT CALCULATION              
--------------------------------------------------

Perturbation type: MRLCC
With fully internally contracted scheme
With third order correction

Preparing necessary RDMs
......production of RDMs took       2.20 sec
Reading binary 4RDM from DICE
......reading the RDM took          1.04 sec

(GOOD) Trace 4RDM:   1680.0 =    8*    7*    6*    5
(GOOD) Trace 3RDM:    336.0 =    8*    7*    6
(GOOD) Trace 2RDM:     56.0 =    8*    7
(GOOD) Trace 1RDM:      8.0 =    8

Producing the integrals
......production of INT took      86.54 sec

Energy_core = -101.62992488
Energy      = -123.03857247

WARNING: Have to use natural orbitals from CAASCF
         offdiagonal elements:    1.03058340

Basic ingredients written to int/
......savings of INGREDIENTS took      17.52 sec

Second-order:
perturber CCVV --        -0.099045507
perturber CCAV --        -0.036650530
perturber ACVV --        -0.190503933
perturber CCAA --        -0.017728651
perturber AAVV --        -0.198871112
perturber CAAV --        -0.107332874
perturber AAAV --        -0.008055972
perturber AAAC --        -0.000000000
Total:                   -0.658188578

Third-order:              0.000818753

Total PT       --        -0.657369825

