 &FCI NORB=9 ,NELEC=11 ,MS2=5,
  ORBSYM=1,1,1,1,1,1,1,1,1,
  ISYM=1,
 &END
  6.140736002234e-01    1  1  1  1
  3.007795127901e-02    2  1  2  1
  5.800735147410e-01    2  2  1  1
  6.707393872884e-01    2  2  2  2
  3.007795127901e-02    3  1  3  1
  3.119990237985e-02    3  2  3  2
  5.800735147410e-01    3  3  1  1
  6.083395825288e-01    3  3  2  2
  6.707393872884e-01    3  3  3  3
  5.462862939365e-04    4  1  2  2
 -2.559488459838e-04    4  1  3  2
 -5.462862939357e-04    4  1  3  3
  5.002791876320e-03    4  1  4  1
  1.042370806604e-03    4  2  2  1
 -4.879084590971e-04    4  2  3  1
  2.469211572832e-03    4  2  4  2
 -4.879084590972e-04    4  3  2  1
 -1.042370806604e-03    4  3  3  1
  2.469211572832e-03    4  3  4  3
  3.622842196189e-01    4  4  1  1
  3.232827063509e-01    4  4  2  2
  3.232827063509e-01    4  4  3  3
  8.534382069909e-01    4  4  4  4
 -2.559488143212e-04    5  1  2  2
 -5.462862480825e-04    5  1  3  2
  2.559488143214e-04    5  1  3  3
 -8.492746449583e-12    5  1  4  1
  5.002791984696e-03    5  1  5  1
 -4.879084270224e-04    5  2  2  1
 -1.042370762408e-03    5  2  3  1
 -2.204683613683e-12    5  2  4  2
  1.181451615061e-03    5  2  4  3
  2.469211545785e-03    5  2  5  2
 -1.042370762408e-03    5  3  2  1
  4.879084270225e-04    5  3  3  1
 -1.181451615061e-03    5  3  4  2
 -2.204671754902e-12    5  3  4  3
  2.469211545786e-03    5  3  5  3
 -1.477466838847e-10    5  4  1  1
 -8.865419326572e-11    5  4  2  2
 -8.865415084609e-11    5  4  3  3
 -8.631136332431e-10    5  4  4  4
  1.828654824599e-02    5  4  5  4
  3.622842214624e-01    5  5  1  1
  3.232827073579e-01    5  5  2  2
  3.232827073579e-01    5  5  3  3
  8.168651219890e-01    5  5  4  4
 -8.631145983578e-10    5  5  5  4
  8.534382299710e-01    5  5  5  5
  1.222949776990e-02    6  1  1  1
  2.150944796421e-02    6  1  2  2
  2.150944796421e-02    6  1  3  3
 -1.107211201193e-01    6  1  4  4
  1.825126127226e-10    6  1  5  4
 -1.107211225431e-01    6  1  5  5
  3.492630343429e-02    6  1  6  1
  3.778933312357e-03    6  2  2  1
 -2.180934534463e-07    6  2  3  1
  6.467672493519e-04    6  2  4  2
 -3.040398333983e-04    6  2  4  3
 -3.040398054134e-04    6  2  5  2
 -6.467671969985e-04    6  2  5  3
  3.273723081098e-03    6  2  6  2
  2.180934533144e-07    6  3  2  1
  3.778933312357e-03    6  3  3  1
 -3.040398333983e-04    6  3  4  2
 -6.467672493519e-04    6  3  4  3
 -6.467671969986e-04    6  3  5  2
  3.040398054134e-04    6  3  5  3
  3.273723081098e-03    6  3  6  3
  2.159662480554e-03    6  4  2  2
 -1.014008137066e-03    6  4  3  2
 -2.159662480554e-03    6  4  3  3
 -8.627639445123e-03    6  4  4  1
  4.918590098306e-08    6  4  5  1
  3.335133682340e-02    6  4  6  4
 -1.014008104624e-03    6  5  2  2
 -2.159662426148e-03    6  5  3  2
  1.014008104624e-03    6  5  3  3
 -4.912483556848e-08    6  5  4  1
 -8.627639854149e-03    6  5  5  1
  1.618762637097e-12    6  5  6  4
  3.335133681986e-02    6  5  6  5
  3.658235055207e-01    6  6  1  1
  3.258250481010e-01    6  6  2  2
  3.258250481010e-01    6  6  3  3
  7.008017651786e-01    6  6  4  4
 -6.204735849419e-10    6  6  5  4
  7.008017734414e-01    6  6  5  5
 -1.058900059740e-01    6  6  6  1
  6.888662876502e-01    6  6  6  6
 -3.910480361617e-03    7  1  2  1
 -1.936739552415e-03    7  1  3  1
  7.841240941221e-04    7  1  4  2
 -9.866581265591e-04    7  1  4  3
 -9.866581066770e-04    7  1  5  2
 -7.841240763969e-04    7  1  5  3
 -8.565663643650e-04    7  1  6  2
 -4.248169989968e-04    7  1  6  3
  6.381158928681e-03    7  1  7  1
 -4.238381868228e-02    7  2  1  1
 -6.852533190725e-02    7  2  2  2
 -2.836967425036e-03    7  2  3  2
 -5.707318157708e-02    7  2  3  3
 -4.775317366478e-04    7  2  4  1
  8.889296278771e-02    7  2  4  4
  6.001143015381e-04    7  2  5  1
 -1.230587870769e-10    7  2  5  4
  8.889296442252e-02    7  2  5  5
 -2.736074467720e-02    7  2  6  1
  1.896862292383e-03    7  2  6  4
 -2.383960752570e-03    7  2  6  5
  7.653676745503e-02    7  2  6  6
  3.541185031738e-02    7  2  7  2
 -2.099151601597e-02    7  3  1  1
 -2.826908176073e-02    7  3  2  2
 -5.726075165255e-03    7  3  3  2
 -3.394301661101e-02    7  3  3  3
  6.001142696637e-04    7  3  4  1
  4.403943739492e-02    7  3  4  4
  4.775317560019e-04    7  3  5  1
 -6.019133261247e-11    7  3  5  4
  4.403943820605e-02    7  3  5  5
 -1.355400363186e-02    7  3  6  1
 -2.383960751152e-03    7  3  6  4
 -1.896862291857e-03    7  3  6  5
  3.791797741263e-02    7  3  6  6
  1.597354738034e-02    7  3  7  2
  1.107834809466e-02    7  3  7  3
  1.393358829630e-03    7  4  2  1
 -1.751374447565e-03    7  4  3  1
  5.805323409173e-03    7  4  4  2
  2.876299615805e-03    7  4  4  3
  1.320157185542e-03    7  4  5  2
 -2.664514727518e-03    7  4  5  3
 -6.538871729133e-04    7  4  6  2
  8.222066830549e-04    7  4  6  3
  4.651047513901e-04    7  4  7  1
  3.205061890843e-02    7  4  7  4
 -1.751374421449e-03    7  5  2  1
 -1.393358815563e-03    7  5  3  1
 -1.320157214103e-03    7  5  4  2
  2.664514740224e-03    7  5  4  3
  5.805323480135e-03    7  5  5  2
  2.876299657488e-03    7  5  5  3
  8.222066967996e-04    7  5  6  2
  6.538871821051e-04    7  5  6  3
 -2.159181037709e-03    7  5  7  1
 -3.985303779419e-11    7  5  7  4
  3.205061947435e-02    7  5  7  5
 -2.544283146665e-03    7  6  2  1
 -1.260461709449e-03    7  6  3  1
 -9.505608996171e-04    7  6  4  2
  1.194382677208e-03    7  6  4  3
  1.194382674807e-03    7  6  5  2
  9.505608977413e-04    7  6  5  3
  2.784242722407e-03    7  6  6  2
  1.379079458956e-03    7  6  6  3
 -3.621802318217e-03    7  6  7  1
 -1.461803404809e-03    7  6  7  4
  6.790398267927e-03    7  6  7  5
  1.994796878876e-02    7  6  7  6
  3.877720047544e-01    7  7  1  1
  3.520427483458e-01    7  7  2  2
  3.574748698918e-03    7  7  3  2
  3.465965993179e-01    7  7  3  3
 -1.044887199428e-03    7  7  4  1
  7.688267748431e-01    7  7  4  4
  4.854157475795e-03    7  7  5  1
 -7.582994468079e-10    7  7  5  4
  7.688267849428e-01    7  7  5  5
 -1.105147818060e-01    7  7  6  1
  3.227592866442e-03    7  7  6  4
 -1.499103261569e-02    7  7  6  5
  7.080737965624e-01    7  7  6  6
  9.066415563861e-02    7  7  7  2
  4.491756782339e-02    7  7  7  3
  8.150355405335e-01    7  7  7  7
  1.936739552415e-03    8  1  2  1
 -3.910480361617e-03    8  1  3  1
 -9.866581265592e-04    8  1  4  2
 -7.841240941223e-04    8  1  4  3
 -7.841240763967e-04    8  1  5  2
  9.866581066769e-04    8  1  5  3
  4.248169989969e-04    8  1  6  2
 -8.565663643650e-04    8  1  6  3
 -2.159181081999e-03    8  1  7  4
 -4.651047446336e-04    8  1  7  5
 -1.155680078625e-07    8  1  7  6
  6.381158928681e-03    8  1  8  1
  2.099151601597e-02    8  2  1  1
  3.394301661101e-02    8  2  2  2
 -5.726075165255e-03    8  2  3  2
  2.826908176073e-02    8  2  3  3
  6.001142696642e-04    8  2  4  1
 -4.403943739492e-02    8  2  4  4
  4.775317560020e-04    8  2  5  1
  6.019126528064e-11    8  2  5  4
 -4.403943820605e-02    8  2  5  5
  1.355400363186e-02    8  2  6  1
 -2.383960751152e-03    8  2  6  4
 -1.896862291857e-03    8  2  6  5
 -3.791797741263e-02    8  2  6  6
 -1.597354737953e-02    8  2  7  2
 -4.747040220079e-03    8  2  7  3
 -3.992750070407e-02    8  2  7  7
  1.107834809465e-02    8  2  8  2
 -4.238381868228e-02    8  3  1  1
 -5.707318157707e-02    8  3  2  2
  2.836967425037e-03    8  3  3  2
 -6.852533190726e-02    8  3  3  3
  4.775317366469e-04    8  3  4  1
  8.889296278771e-02    8  3  4  4
 -6.001143015382e-04    8  3  5  1
 -1.230587062135e-10    8  3  5  4
  8.889296442252e-02    8  3  5  5
 -2.736074467720e-02    8  3  6  1
 -1.896862292383e-03    8  3  6  4
  2.383960752570e-03    8  3  6  5
  7.653676745503e-02    8  3  6  6
  2.908054244031e-02    8  3  7  2
  1.597354737953e-02    8  3  7  3
  8.059279696104e-02    8  3  7  7
 -1.597354738034e-02    8  3  8  2
  3.541185031738e-02    8  3  8  3
 -1.751374447565e-03    8  4  2  1
 -1.393358829630e-03    8  4  3  1
 -2.876299615805e-03    8  4  4  2
  5.805323409173e-03    8  4  4  3
  2.664514727518e-03    8  4  5  2
  1.320157185542e-03    8  4  5  3
  8.222066830550e-04    8  4  6  2
  6.538871729132e-04    8  4  6  3
 -2.159181081999e-03    8  4  7  1
  1.433328452386e-02    8  4  7  5
  6.790398131049e-03    8  4  7  6
 -4.651047513902e-04    8  4  8  1
  3.205061890843e-02    8  4  8  4
 -1.393358815563e-03    8  5  2  1
  1.751374421449e-03    8  5  3  1
 -2.664514740224e-03    8  5  4  2
 -1.320157214103e-03    8  5  4  3
 -2.876299657488e-03    8  5  5  2
  5.805323480135e-03    8  5  5  3
  6.538871821051e-04    8  5  6  2
 -8.222066967995e-04    8  5  6  3
 -4.651047446336e-04    8  5  7  1
 -1.433328452386e-02    8  5  7  4
  1.461803414674e-03    8  5  7  6
  2.159181037709e-03    8  5  8  1
 -3.985324961781e-11    8  5  8  4
  3.205061947435e-02    8  5  8  5
  1.260461709449e-03    8  6  2  1
 -2.544283146665e-03    8  6  3  1
  1.194382677208e-03    8  6  4  2
  9.505608996170e-04    8  6  4  3
  9.505608977412e-04    8  6  5  2
 -1.194382674807e-03    8  6  5  3
 -1.379079458956e-03    8  6  6  2
  2.784242722407e-03    8  6  6  3
  1.155680079431e-07    8  6  7  1
  6.790398131049e-03    8  6  7  4
  1.461803414674e-03    8  6  7  5
 -3.621802318217e-03    8  6  8  1
  1.461803404808e-03    8  6  8  4
 -6.790398267927e-03    8  6  8  5
  1.994796878876e-02    8  6  8  6
 -3.574748699170e-03    8  7  2  2
  2.723074513440e-03    8  7  3  2
  3.574748699171e-03    8  7  3  3
  4.854157295426e-03    8  7  4  1
  1.044887213111e-03    8  7  5  1
 -1.499103263033e-02    8  7  6  4
 -3.227592866655e-03    8  7  6  5
 -2.495033558689e-03    8  7  7  2
  5.035679334917e-03    8  7  7  3
  5.035679334917e-03    8  7  8  2
  2.495033558689e-03    8  7  8  3
  3.113926566580e-02    8  7  8  7
  3.877720047544e-01    8  8  1  1
  3.465965993179e-01    8  8  2  2
 -3.574748698915e-03    8  8  3  2
  3.520427483458e-01    8  8  3  3
  1.044887199425e-03    8  8  4  1
  7.688267748431e-01    8  8  4  4
 -4.854157475795e-03    8  8  5  1
 -7.582989425491e-10    8  8  5  4
  7.688267849428e-01    8  8  5  5
 -1.105147818060e-01    8  8  6  1
 -3.227592866444e-03    8  8  6  4
  1.499103261569e-02    8  8  6  5
  7.080737965624e-01    8  8  6  6
  8.059279696104e-02    8  8  7  2
  3.992750070407e-02    8  8  7  3
  7.527570092125e-01    8  8  7  7
 -4.491756782339e-02    8  8  8  2
  9.066415563861e-02    8  8  8  3
  8.150355405335e-01    8  8  8  8
  1.690390870252e-01    9  1  1  1
  1.679145264451e-01    9  1  2  2
  1.679145264451e-01    9  1  3  3
 -6.171107625511e-02    9  1  4  4
  7.930148328384e-11    9  1  5  4
 -6.171107739564e-02    9  1  5  5
  3.656676054798e-02    9  1  6  1
 -4.864343560658e-02    9  1  6  6
 -4.618040310907e-02    9  1  7  2
 -2.287483567638e-02    9  1  7  3
 -4.865974179644e-02    9  1  7  7
  2.287483567637e-02    9  1  8  2
 -4.618040310907e-02    9  1  8  3
 -4.865974179644e-02    9  1  8  8
  1.143764628062e-01    9  1  9  1
  1.236130938063e-02    9  2  2  1
  7.166670830690e-08    9  2  3  1
  3.244284044827e-04    9  2  4  2
 -1.534189981524e-04    9  2  4  3
 -1.534190033857e-04    9  2  5  2
 -3.244284078303e-04    9  2  5  3
  2.625925783654e-03    9  2  6  2
 -2.674261912031e-07    9  2  6  3
 -2.462872979494e-03    9  2  7  1
 -1.352893216313e-04    9  2  7  4
  1.692586655169e-04    9  2  7  5
  2.393067700858e-04    9  2  7  6
  1.220392732552e-03    9  2  8  1
  1.692586793382e-04    9  2  8  4
  1.352893183776e-04    9  2  8  5
 -1.188143009183e-04    9  2  8  6
  8.574232369823e-03    9  2  9  2
 -7.166670836239e-08    9  3  2  1
  1.236130938063e-02    9  3  3  1
 -1.534189981525e-04    9  3  4  2
 -3.244284044828e-04    9  3  4  3
 -3.244284078303e-04    9  3  5  2
  1.534190033855e-04    9  3  5  3
  2.674261913458e-07    9  3  6  2
  2.625925783654e-03    9  3  6  3
 -1.220392732552e-03    9  3  7  1
  1.692586793382e-04    9  3  7  4
  1.352893183776e-04    9  3  7  5
  1.188143009182e-04    9  3  7  6
 -2.462872979494e-03    9  3  8  1
  1.352893216313e-04    9  3  8  4
 -1.692586655170e-04    9  3  8  5
  2.393067700858e-04    9  3  8  6
  8.574232369823e-03    9  3  9  3
 -1.311394417782e-04    9  4  2  2
  6.096871023008e-05    9  4  3  2
  1.311394417798e-04    9  4  3  3
 -5.931032225247e-03    9  4  4  1
 -1.051848160281e-08    9  4  5  1
  7.798594854075e-03    9  4  6  4
  9.216028074177e-08    9  4  6  5
  5.398680198340e-04    9  4  7  2
 -6.790452148845e-04    9  4  7  3
  8.985545752330e-04    9  4  7  7
 -6.790452148847e-04    9  4  8  2
 -5.398680198337e-04    9  4  8  3
 -4.174819646000e-03    9  4  8  7
 -8.985545752291e-04    9  4  8  8
  8.668372887225e-03    9  4  9  4
  6.096868182293e-05    9  5  2  2
  1.311394011429e-04    9  5  3  2
 -6.096868182305e-05    9  5  3  3
  1.053432495237e-08    9  5  4  1
 -5.931032330327e-03    9  5  5  1
 -9.226606835023e-08    9  5  6  4
  7.798595534833e-03    9  5  6  5
 -6.790452631048e-04    9  5  7  2
 -5.398680455435e-04    9  5  7  3
 -4.174819921564e-03    9  5  7  7
 -5.398680455434e-04    9  5  8  2
  6.790452631047e-04    9  5  8  3
 -8.985545878943e-04    9  5  8  7
  4.174819921564e-03    9  5  8  8
 -1.899478012939e-12    9  5  9  4
  8.668372915368e-03    9  5  9  5
  7.499973537223e-02    9  6  1  1
  6.275409066777e-02    9  6  2  2
  6.275409066777e-02    9  6  3  3
  1.309869153426e-01    9  6  4  4
 -2.437287478425e-10    9  6  5  4
  1.309869185619e-01    9  6  5  5
 -2.955873271277e-02    9  6  6  1
  1.312962631349e-01    9  6  6  6
  1.352840451027e-02    9  6  7  2
  6.704164991744e-03    9  6  7  3
  1.407437062173e-01    9  6  7  7
 -6.704164991744e-03    9  6  8  2
  1.352840451027e-02    9  6  8  3
  1.407437062173e-01    9  6  8  8
  8.049818260965e-03    9  6  9  1
  5.335711984604e-02    9  6  9  6
 -3.828530989578e-03    9  7  2  1
 -1.896458204460e-03    9  7  3  1
 -2.579221091406e-04    9  7  4  2
  3.235208106951e-04    9  7  4  3
  3.235208051690e-04    9  7  5  2
  2.579221076097e-04    9  7  5  3
  9.284797075458e-04    9  7  6  2
  4.601417002127e-04    9  7  6  3
 -3.972478131796e-03    9  7  7  1
 -1.004121054065e-03    9  7  7  4
  4.663386055483e-03    9  7  7  5
  4.659644519651e-03    9  7  7  6
 -4.621072255981e-08    9  7  8  1
  4.663386140617e-03    9  7  8  4
  1.004121054419e-03    9  7  8  5
  5.091880514593e-08    9  7  8  6
 -6.756243583109e-04    9  7  9  2
 -3.347008719031e-04    9  7  9  3
  1.073249790833e-02    9  7  9  7
  1.896458204460e-03    9  8  2  1
 -3.828530989578e-03    9  8  3  1
  3.235208106951e-04    9  8  4  2
  2.579221091406e-04    9  8  4  3
  2.579221076097e-04    9  8  5  2
 -3.235208051690e-04    9  8  5  3
 -4.601417002128e-04    9  8  6  2
  9.284797075458e-04    9  8  6  3
  4.621072258776e-08    9  8  7  1
  4.663386140617e-03    9  8  7  4
  1.004121054419e-03    9  8  7  5
 -5.091880531109e-08    9  8  7  6
 -3.972478131796e-03    9  8  8  1
  1.004121054066e-03    9  8  8  4
 -4.663386055483e-03    9  8  8  5
  4.659644519651e-03    9  8  8  6
  3.347008719032e-04    9  8  9  2
 -6.756243583109e-04    9  8  9  3
  1.073249790833e-02    9  8  9  8
  3.486167547559e-01    9  9  1  1
  3.220448456985e-01    9  9  2  2
  3.220448456985e-01    9  9  3  3
  3.990360135874e-01    9  9  4  4
 -1.821348146403e-10    9  9  5  4
  3.990360160517e-01    9  9  5  5
 -2.537997344729e-02    9  9  6  1
  3.893578664815e-01    9  9  6  6
  1.567060432398e-02    9  9  7  2
  7.763448896074e-03    9  9  7  3
  4.067594213894e-01    9  9  7  7
 -7.763448896074e-03    9  9  8  2
  1.567060432398e-02    9  9  8  3
  4.067594213894e-01    9  9  8  8
  7.261338567186e-03    9  9  9  1
  4.750581256393e-02    9  9  9  6
  3.342572662460e-01    9  9  9  9
 -4.988095242688e+00    1  1  0  0
 -4.896648272227e+00    2  2  0  0
 -4.896648272227e+00    3  3  0  0
 -5.584820491246e+00    4  4  0  0
  3.486060128466e-09    5  4  0  0
 -5.584820536673e+00    5  5  0  0
  4.764278196065e-01    6  1  0  0
 -5.206967154130e+00    6  6  0  0
 -1.937280696113e-01    7  2  0  0
 -9.600478555901e-02    7  3  0  0
 -5.578307724342e+00    7  7  0  0
  9.600478555902e-02    8  2  0  0
 -1.937280696113e-01    8  3  0  0
 -5.578307724342e+00    8  8  0  0
 -5.010217672895e-01    9  1  0  0
 -8.516049027379e-01    9  6  0  0
 -3.713336982896e+00    9  9  0  0
    -88.252283817243   0  0  0  0
