#INFO: **** input file is /projects/bamu3429/BENCHMARK/fresh_atoms/MRPT/vdz/monoxides/MnO/mrpt.py ****
import json
from pyscf import gto,scf,mcscf, fci, lo, ci, cc
from pyscf.scf import ROHF, UHF,ROKS
import numpy as np
import pandas as pd

# THIS IS WERE IT STARTS ====================================

df=json.load(open("../../../trail.json"))

spins={'ScO':1, 'TiO':2, 'VO':3, 'CrO':4, 'MnO':5, 'FeO':4, 'CuO':1}

nd={'Sc':(1,0), 'Ti':(2,0), 'V':(3,0), 'Cr':(5,0), 'Mn':(5,0), 'Fe':(5,1), 'Cu':(5,4)}

cas={'Sc':3, 'Ti':4, 'V':5, 'Cr':6, 'Mn':7, 'Fe':8, 'Cu':11}

re={'ScO':1.668, 'TiO':1.623, 'VO':1.591, 'CrO':1.621, 'MnO':1.648, 'FeO':1.616, 'CuO':1.725}

datacsv={}
for nm in ['basis','charge','method','molecule','pseudopotential',
           'totalenergy','totalenergy-stocherr','totalenergy-syserr']:
  datacsv[nm]=[]

basis='vdz'
element='Mn'

mol=gto.Mole()
mol.ecp={}
mol.basis={}
for el in [element,'O']:
  mol.ecp[el]=gto.basis.parse_ecp(df[el]['ecp'])
  mol.basis[el]=gto.basis.parse(df[el][basis])
mol.charge=0
mol.spin=spins[element+'O']
mol.build(atom="%s 0. 0. 0.; O 0. 0. %g"%(element,re[element+'O']),verbose=4)

m=ROHF(mol)
m.level_shift=1000.0
dm=m.from_chk("../../../../HF/monoxides/"+element+basis+"0.chk")
hf=m.kernel(dm)
m.analyze()

from pyscf.shciscf import shci
mc = shci.SHCISCF(m, 9, 4+cas[element])
#mc.fcisolver.conv_tol = 1e-14
mc.fcisolver.mpiprefix="srun -n20"
mc.fcisolver.num_thrds=12
mc.verbose = 4
cas=mc.kernel()[0]
 
from pyscf.icmpspt import icmpspt
pt=icmpspt.icmpspt(mc,rdmM=500, PTM=1000,\
                          pttype="MRLCC",\
                          third_order=True,\
                          fully_ic=True,\
                          do_dm4=True)

datacsv['basis'].append(basis)
datacsv['charge'].append(0)
datacsv['method'].append('MRPT')
datacsv['molecule'].append(element)
datacsv['pseudopotential'].append('trail')
datacsv['totalenergy'].append(cas+pt)
datacsv['totalenergy-stocherr'].append(0.0)
datacsv['totalenergy-syserr'].append(0.0)
pd.DataFrame(datacsv).to_csv(element+".csv",index=False)

#INFO: ******************** input file end ********************


System: ('Linux', 'bnode0302.rc.int.colorado.edu', '3.10.0-514.41.1.el7.x86_64', '#1 SMP Wed Jan 17 10:26:16 EST 2018', 'x86_64', 'x86_64')  Threads 28
Python 2.7.11 (default, Mar 22 2016, 01:42:54) 
[GCC Intel(R) C++ gcc 4.8 mode]
numpy 1.11.1  scipy 0.17.1
Date: Wed Apr 18 13:42:47 2018
PySCF version 1.4.6
PySCF path  /projects/bamu3429/softwares/pyscf_uptodate/pyscf
GIT ORIG_HEAD f3591ef22170896a4cdc2aadaa6f5da388ffcadb
GIT HEAD      ref: refs/heads/master
GIT master branch  1847583fb1d2472321833d3c71c8b7008e5fabf5

[INPUT] VERBOSE 4
[INPUT] num atoms = 2
[INPUT] num electrons = 21
[INPUT] charge = 0
[INPUT] spin (= nelec alpha-beta = 2S) = 5
[INPUT] symmetry False subgroup None
[INPUT]  1 Mn     0.000000000000   0.000000000000   0.000000000000 AA    0.000000000000   0.000000000000   0.000000000000 Bohr
[INPUT]  2 O      0.000000000000   0.000000000000   1.648000000000 AA    0.000000000000   0.000000000000   3.114268653283 Bohr
[INPUT] ---------------- BASIS SET ---------------- 
[INPUT] l, kappa, [nprim/nctr], expnt,             c_1 c_2 ...
[INPUT] Mn
[INPUT] 0    0    [12   /1   ]  41.19094709       0.0124
                                21.94503151       -0.141461
                                12.89081507       0.669584
                                8.14876869        -1.015431
                                3.94904809        0.149151
                                1.91298055        0.350677
                                1.10736282        0.627006
                                0.4793266         0.235349
                                0.22675293        -0.024214
                                0.10639652        0.017357
                                0.05000494        -0.005272
                                0.0234982         0.002181
[INPUT] 0    0    [12   /1   ]  41.19094709       -0.002036
                                21.94503151       0.02709
                                12.89081507       -0.142056
                                8.14876869        0.229945
                                3.94904809        -0.035538
                                1.91298055        -0.085336
                                1.10736282        -0.24355
                                0.4793266         -0.201798
                                0.22675293        0.098761
                                0.10639652        0.439512
                                0.05000494        0.524416
                                0.0234982         0.13192
[INPUT] 0    0    [12   /1   ]  41.19094709       -0.004448
                                21.94503151       0.086272
                                12.89081507       -0.555298
                                8.14876869        1.050441
                                3.94904809        -0.337173
                                1.91298055        -1.203908
                                1.10736282        -0.006079
                                0.4793266         0.670363
                                0.22675293        0.824311
                                0.10639652        0.061945
                                0.05000494        -0.613998
                                0.0234982         -0.243067
[INPUT] 0    0    [1    /1   ]  0.0234982            1
[INPUT] 0    0    [1    /1   ]  0.01104221           1
[INPUT] 1    0    [12   /1   ]  60.1913049        0.000757
                                31.1792672        -0.006538
                                16.24276866       0.042902
                                8.80021485        -0.164602
                                5.33575038        0.099387
                                3.0325056         0.217723
                                1.63861968        0.443669
                                0.80258711        0.32785
                                0.40627833        0.098641
                                0.17382998        0.011768
                                0.07306386        -0.000703
                                0.03071005        0.000403
[INPUT] 1    0    [12   /1   ]  60.1913049        -0.000118
                                31.1792672        0.001208
                                16.24276866       -0.009122
                                8.80021485        0.038924
                                5.33575038        -0.027473
                                3.0325056         -0.058215
                                1.63861968        -0.124371
                                0.80258711        -0.107355
                                0.40627833        0.040741
                                0.17382998        0.350952
                                0.07306386        0.523294
                                0.03071005        0.234255
[INPUT] 1    0    [12   /1   ]  60.1913049        -0.000211
                                31.1792672        -0.002024
                                16.24276866       0.037014
                                8.80021485        -0.235453
                                5.33575038        0.184384
                                3.0325056         0.808525
                                1.63861968        0.15119
                                0.80258711        -0.861849
                                0.40627833        -0.476701
                                0.17382998        0.542345
                                0.07306386        0.419535
                                0.03071005        0.008828
[INPUT] 1    0    [1    /1   ]  0.03071005           1
[INPUT] 1    0    [1    /1   ]  0.01290798           1
[INPUT] 2    0    [10   /1   ]  52.56900844       0.000307
                                23.81654224       -0.007961
                                11.32693504       0.114253
                                4.99176622        0.164228
                                2.46839125        0.269996
                                1.15974738        0.320627
                                0.53124091        0.273188
                                0.24220121        0.161357
                                0.11248934        0.058244
                                0.05201371        0.009574
[INPUT] 2    0    [10   /1   ]  52.56900844       0.000227
                                23.81654224       0.005426
                                11.32693504       -0.108395
                                4.99176622        -0.200206
                                2.46839125        -0.359104
                                1.15974738        -0.096632
                                0.53124091        0.250081
                                0.24220121        0.404676
                                0.11248934        0.295662
                                0.05201371        0.077911
[INPUT] 2    0    [1    /1   ]  0.05201371           1
[INPUT] 2    0    [1    /1   ]  0.02405051           1
[INPUT] 3    0    [1    /1   ]  2.379676             1
[INPUT] 3    0    [1    /1   ]  1.10033338           1
[INPUT] O
[INPUT] 0    0    [10   /1   ]  57.663349         -0.002794
                                35.726816         0.023976
                                22.453757         -0.115974
                                14.732301         0.288033
                                9.739917          -0.274786
                                5.042008          -0.083789
                                2.157818          0.063778
                                1.002916          0.410182
                                0.421839          0.504044
                                0.173041          0.172152
[INPUT] 0    0    [1    /1   ]  0.222099             1
[INPUT] 0    0    [1    /1   ]  0.08884              1
[INPUT] 1    0    [10   /1   ]  52.47406          -0.000522
                                32.138432         0.004857
                                19.458579         -0.027749
                                11.839344         0.074258
                                7.91003           0.014369
                                3.670858          0.153479
                                1.53966           0.283685
                                0.647119          0.358201
                                0.267853          0.29559
                                0.107198          0.104889
[INPUT] 1    0    [1    /1   ]  0.252604             1
[INPUT] 1    0    [1    /1   ]  0.101042             1
[INPUT] 2    0    [1    /1   ]  1.223113             1
[INPUT] 2    0    [1    /1   ]  0.489245             1
nuclear repulsion = 28.8992408876214
number of shells = 24
number of NR pGTOs = 334
number of NR cGTOs = 76
basis = {'Mn': [[0, [41.19094709, 0.0124], [21.94503151, -0.141461], [12.89081507, 0.669584], [8.14876869, -1.015431], [3.94904809, 0.149151], [1.91298055, 0.350677], [1.10736282, 0.627006], [0.4793266, 0.235349], [0.22675293, -0.024214], [0.10639652, 0.017357], [0.05000494, -0.005272], [0.0234982, 0.002181]], [0, [41.19094709, -0.002036], [21.94503151, 0.02709], [12.89081507, -0.142056], [8.14876869, 0.229945], [3.94904809, -0.035538], [1.91298055, -0.085336], [1.10736282, -0.24355], [0.4793266, -0.201798], [0.22675293, 0.098761], [0.10639652, 0.439512], [0.05000494, 0.524416], [0.0234982, 0.13192]], [0, [41.19094709, -0.004448], [21.94503151, 0.086272], [12.89081507, -0.555298], [8.14876869, 1.050441], [3.94904809, -0.337173], [1.91298055, -1.203908], [1.10736282, -0.006079], [0.4793266, 0.670363], [0.22675293, 0.824311], [0.10639652, 0.061945], [0.05000494, -0.613998], [0.0234982, -0.243067]], [0, [0.0234982, 1.0]], [0, [0.01104221, 1.0]], [1, [60.1913049, 0.000757], [31.1792672, -0.006538], [16.24276866, 0.042902], [8.80021485, -0.164602], [5.33575038, 0.099387], [3.0325056, 0.217723], [1.63861968, 0.443669], [0.80258711, 0.32785], [0.40627833, 0.098641], [0.17382998, 0.011768], [0.07306386, -0.000703], [0.03071005, 0.000403]], [1, [60.1913049, -0.000118], [31.1792672, 0.001208], [16.24276866, -0.009122], [8.80021485, 0.038924], [5.33575038, -0.027473], [3.0325056, -0.058215], [1.63861968, -0.124371], [0.80258711, -0.107355], [0.40627833, 0.040741], [0.17382998, 0.350952], [0.07306386, 0.523294], [0.03071005, 0.234255]], [1, [60.1913049, -0.000211], [31.1792672, -0.002024], [16.24276866, 0.037014], [8.80021485, -0.235453], [5.33575038, 0.184384], [3.0325056, 0.808525], [1.63861968, 0.15119], [0.80258711, -0.861849], [0.40627833, -0.476701], [0.17382998, 0.542345], [0.07306386, 0.419535], [0.03071005, 0.008828]], [1, [0.03071005, 1.0]], [1, [0.01290798, 1.0]], [2, [52.56900844, 0.000307], [23.81654224, -0.007961], [11.32693504, 0.114253], [4.99176622, 0.164228], [2.46839125, 0.269996], [1.15974738, 0.320627], [0.53124091, 0.273188], [0.24220121, 0.161357], [0.11248934, 0.058244], [0.05201371, 0.009574]], [2, [52.56900844, 0.000227], [23.81654224, 0.005426], [11.32693504, -0.108395], [4.99176622, -0.200206], [2.46839125, -0.359104], [1.15974738, -0.096632], [0.53124091, 0.250081], [0.24220121, 0.404676], [0.11248934, 0.295662], [0.05201371, 0.077911]], [2, [0.05201371, 1.0]], [2, [0.02405051, 1.0]], [3, [2.379676, 1.0]], [3, [1.10033338, 1.0]]], 'O': [[0, [57.663349, -0.002794], [35.726816, 0.023976], [22.453757, -0.115974], [14.732301, 0.288033], [9.739917, -0.274786], [5.042008, -0.083789], [2.157818, 0.063778], [1.002916, 0.410182], [0.421839, 0.504044], [0.173041, 0.172152]], [0, [0.222099, 1.0]], [0, [0.08884, 1.0]], [1, [52.47406, -0.000522], [32.138432, 0.004857], [19.458579, -0.027749], [11.839344, 0.074258], [7.91003, 0.014369], [3.670858, 0.153479], [1.53966, 0.283685], [0.647119, 0.358201], [0.267853, 0.29559], [0.107198, 0.104889]], [1, [0.252604, 1.0]], [1, [0.101042, 1.0]], [2, [1.223113, 1.0]], [2, [0.489245, 1.0]]]}
ecp = {'Mn': [10, [[-1, [[], [[18.43432244, 15.0]], [[12.74175213, 31301.56494509], [11.67410914, -4576.3546318], [12.90376156, -26766.73507377], [4.97171871, -4.09339906]], [[8.79264819, 276.51483655]]]], [0, [[], [], [[13.56187871, 2771.78238977], [9.44812535, 12553.69429672], [10.76503846, 1886.79316638], [11.65345594, -9260.55332402], [8.48073002, -8943.95003535], [6.96707028, 1041.73211249]], []]], [1, [[], [], [[12.71342918, -23181.32761179], [18.03174513, 111577.22220216], [16.6827906, -42399.84416473], [13.18867124, 16025.79106608], [18.42861128, -76264.60573764], [12.90928974, 14270.47832347]], []]], [2, [[], [], [[8.13384228, -382.83904013], [14.28699222, 5676.99013005], [11.14406629, 35338.03440844], [11.37674978, -38881.44458388], [18.25818233, 3550.6602642], [17.73146307, -5317.47975296]], []]]]], 'O': [2, [[-1, [[], [[10.27717748, 6.0]], [[15.99566749, 1232.50197768], [10.46901775, -696.47008301], [14.6384801, -2654.22657081], [12.57591181, 2101.67732548]], [[7.77739102, 61.66306486]]]], [0, [[], [], [[12.39426073, -656683.37638839], [12.38126171, 657858.57667068], [8.57671033, 511.50098405], [9.89256508, -2579.54665641], [28.05641604, -57.68129584], [17.24753607, 970.30940152]], []]], [1, [[], [], [[14.78918914, -363027.24258186], [14.82014018, 361852.52314043], [22.89622221, -1300.20069256], [8.51331893, -181.96869573], [11.48609758, 2194.87589959], [27.22017524, 451.19906206]], []]]]]}
CPU time:         3.59


******** <class 'pyscf.scf.rohf.ROHF'> flags ********
method = ROHF
initial guess = minao
damping factor = 0
level shift factor = 1000.0
DIIS = <class 'pyscf.scf.diis.CDIIS'>
DIIS start cycle = 1
DIIS space = 8
SCF tol = 1e-09
SCF gradient tol = None
max. SCF cycles = 50
direct_scf = True
direct_scf_tol = 1e-13
chkfile to save SCF result = /rc_scratch/bamu3429/tmpbCRlDD
max_memory 4000 MB (current use 165 MB)
num. doubly occ = 8  num. singly occ = 5
Set gradient conv threshold to 3.16228e-05
init E= -119.133239499049
  HOMO = 499.879532711379  LUMO = 999.972730668243
cycle= 1 E= -119.133239499049  delta_E= -4.83e-13  |g|= 1.57e-05  |ddm|= 1.37e-07
  HOMO = -0.120467291113684  LUMO = -0.0272693320827471
Extra cycle  E= -119.133239499213  delta_E= -1.63e-10  |g|= 9.57e-06  |ddm|= 5.07e-05
converged SCF energy = -119.133239499213
**** MO energy ****
                Roothaan           | alpha              | beta
MO #1   energy= -4.02652081007933  | -4.2306646322291   | -3.82237697535568  occ= 2
MO #2   energy= -2.54006512304904  | -2.77834205836719  | -2.30178807030184  occ= 2
MO #3   energy= -2.53529850827174  | -2.78489445219744  | -2.28570259853003  occ= 2
MO #4   energy= -2.53529850827174  | -2.78489445219743  | -2.28570259853003  occ= 2
MO #5   energy= -1.11080907039689  | -1.12340068675367  | -1.09821738043064  occ= 2
MO #6   energy= -0.394833003323131 | -0.421322044654654 | -0.368341791624563 occ= 2
MO #7   energy= -0.382133843121481 | -0.406603229656721 | -0.3576657283574   occ= 2
MO #8   energy= -0.382133843121478 | -0.406603229656721 | -0.357665728357401 occ= 2
MO #9   energy= -0.149907636633881 | -0.634581908891299 | 0.334766289682511  occ= 1
MO #10  energy= -0.149907636633845 | -0.634581908891287 | 0.33476628968257   occ= 1
MO #11  energy= -0.124334291493024 | -0.511744602387451 | 0.263075167319248  occ= 1
MO #12  energy= -0.120467291113685 | -0.584396203830157 | 0.343461316420414  occ= 1
MO #13  energy= -0.120467291113684 | -0.584396203830159 | 0.343461316420412  occ= 1
MO #14  energy= -0.0272693320827471 | -0.0394231874433772 | -0.0151135898758752 occ= 0
MO #15  energy= 0.0178460059343719 | 0.0161965450447096 | 0.0194956782085896 occ= 0
MO #16  energy= 0.0178460059343729 | 0.0161965450447098 | 0.0194956782085901 occ= 0
MO #17  energy= 0.0204097428590341 | 0.0152927228115729 | 0.0255266645026632 occ= 0
MO #18  energy= 0.0360483502717952 | 0.03527688492075   | 0.0368198850205523 occ= 0
MO #19  energy= 0.0683838385262887 | 0.0638571462552725 | 0.0729108406810701 occ= 0
MO #20  energy= 0.0683838385262906 | 0.0638571462552772 | 0.0729108406810748 occ= 0
MO #21  energy= 0.0701096058990229 | 0.0698402292806371 | 0.070378988207474  occ= 0
MO #22  energy= 0.0701096058990254 | 0.0698402292806378 | 0.0703789882074747 occ= 0
MO #23  energy= 0.0832787756910665 | 0.0820905126915341 | 0.0844670151778541 occ= 0
MO #24  energy= 0.0932857037734041 | 0.0887865774951509 | 0.0977850043077255 occ= 0
MO #25  energy= 0.0932857037734061 | 0.0887865774951508 | 0.0977850043077264 occ= 0
MO #26  energy= 0.137247875692588  | 0.132066880224924  | 0.142428760655791  occ= 0
MO #27  energy= 0.161660269068959  | 0.146408931508816  | 0.176911382662461  occ= 0
MO #28  energy= 0.21097581097157   | 0.206707313750481  | 0.215244557057351  occ= 0
MO #29  energy= 0.210975810971572  | 0.206707313750482  | 0.215244557057355  occ= 0
MO #30  energy= 0.216468185740873  | 0.208963514636773  | 0.223972142089074  occ= 0
MO #31  energy= 0.216912446871814  | 0.210054472483129  | 0.223770506564781  occ= 0
MO #32  energy= 0.216912446871815  | 0.210054472483129  | 0.223770506564782  occ= 0
MO #33  energy= 0.296175028602988  | 0.268561031136439  | 0.323789037896638  occ= 0
MO #34  energy= 0.296175028602989  | 0.268561031136438  | 0.323789037896637  occ= 0
MO #35  energy= 0.434034401982366  | 0.420792838464621  | 0.447275341248912  occ= 0
MO #36  energy= 0.491856003637586  | 0.48210195128073   | 0.501609572098071  occ= 0
MO #37  energy= 0.493869437823807  | 0.49199570183664   | 0.495743158868586  occ= 0
MO #38  energy= 0.493869437823815  | 0.491995701836646  | 0.495743158868593  occ= 0
MO #39  energy= 1.15534272979734   | 1.11741691976387   | 1.1932679429508    occ= 0
MO #40  energy= 1.32606060735712   | 1.25375633305965   | 1.39836510678072   occ= 0
MO #41  energy= 1.32606060735719   | 1.25375633305972   | 1.39836510678078   occ= 0
MO #42  energy= 1.32928534795542   | 1.26286213651322   | 1.39570923257868   occ= 0
MO #43  energy= 1.32928534795542   | 1.26286213651323   | 1.39570923257869   occ= 0
MO #44  energy= 1.53350252187902   | 1.50337676389496   | 1.56362830685036   occ= 0
MO #45  energy= 1.53350252187904   | 1.50337676389496   | 1.5636283068504    occ= 0
MO #46  energy= 1.58086312733652   | 1.57683265276449   | 1.58489360236722   occ= 0
MO #47  energy= 1.62169271809974   | 1.61795626443893   | 1.62542916856709   occ= 0
MO #48  energy= 1.62169271809976   | 1.61795626443895   | 1.6254291685671    occ= 0
MO #49  energy= 1.75297643174988   | 1.68850800996659   | 1.81744447471913   occ= 0
MO #50  energy= 1.81272366019711   | 1.76987560161941   | 1.85557171237882   occ= 0
MO #51  energy= 1.81272366019712   | 1.76987560161942   | 1.85557171237883   occ= 0
MO #52  energy= 2.01907314275665   | 1.97472925471439   | 2.06341677723453   occ= 0
MO #53  energy= 2.26712147850074   | 2.24105538550215   | 2.29318758654359   occ= 0
MO #54  energy= 3.12300331546743   | 3.03492297508718   | 3.21108364981292   occ= 0
MO #55  energy= 3.12300331546743   | 3.03492297508718   | 3.21108364981291   occ= 0
MO #56  energy= 3.14769364911461   | 3.07604143466649   | 3.21934586919728   occ= 0
MO #57  energy= 3.17648312123018   | 3.07177803012591   | 3.28118821233446   occ= 0
MO #58  energy= 3.17648312123019   | 3.07177803012591   | 3.28118821233447   occ= 0
MO #59  energy= 3.2010707299967    | 3.10362409496744   | 3.29851736610775   occ= 0
MO #60  energy= 3.2010707299967    | 3.10362409496744   | 3.29851736610776   occ= 0
MO #61  energy= 3.45025693870033   | 3.37040235547883   | 3.53011152948297   occ= 0
MO #62  energy= 3.45025693870033   | 3.37040235547883   | 3.53011152948298   occ= 0
MO #63  energy= 4.19551730593512   | 4.13178812169018   | 4.25924650989195   occ= 0
MO #64  energy= 4.29382496985366   | 4.28917599612096   | 4.29847394364262   occ= 0
MO #65  energy= 4.29382496985366   | 4.28917599612098   | 4.29847394364264   occ= 0
MO #66  energy= 4.42350705904689   | 4.42022575532591   | 4.42678836609922   occ= 0
MO #67  energy= 4.42350705904689   | 4.42022575532591   | 4.42678836609922   occ= 0
MO #68  energy= 4.5331922951874    | 4.5115250863516    | 4.5548595052273    occ= 0
MO #69  energy= 8.27236553634982   | 8.21850691248224   | 8.3262241580837    occ= 0
MO #70  energy= 8.5551260216403    | 8.44704487627594   | 8.66320716700464   occ= 0
MO #71  energy= 8.55512602164031   | 8.44704487627595   | 8.66320716700466   occ= 0
MO #72  energy= 8.57496148799707   | 8.4648124814908    | 8.68511049619855   occ= 0
MO #73  energy= 8.57496148799708   | 8.46481248149079   | 8.68511049619854   occ= 0
MO #74  energy= 8.70787995649764   | 8.60540684378763   | 8.81035307062196   occ= 0
MO #75  energy= 8.70787995649764   | 8.60540684378766   | 8.81035307062199   occ= 0
MO #76  energy= 9.10673300942122   | 9.03459039010773   | 9.17887561922311   occ= 0
 ** Mulliken pop on meta-lowdin orthogonal AOs  **
 ** Mulliken pop  **
pop of  0Mn 3s        1.99990
pop of  0Mn 4s        0.45052
pop of  0Mn 5s        0.00875
pop of  0Mn 6s        0.00759
pop of  0Mn 7s        0.00202
pop of  0Mn 3px       1.99957
pop of  0Mn 3py       1.99957
pop of  0Mn 3pz       1.99856
pop of  0Mn 4px       0.05209
pop of  0Mn 4py       0.05209
pop of  0Mn 4pz       0.00362
pop of  0Mn 5px       0.00141
pop of  0Mn 5py       0.00141
pop of  0Mn 5pz       0.00134
pop of  0Mn 6px       0.00487
pop of  0Mn 6py       0.00487
pop of  0Mn 6pz       0.00216
pop of  0Mn 7px       0.00073
pop of  0Mn 7py       0.00073
pop of  0Mn 7pz       0.00046
pop of  0Mn 3dxy      0.99754
pop of  0Mn 3dyz      1.06178
pop of  0Mn 3dz^2     1.02661
pop of  0Mn 3dxz      1.06178
pop of  0Mn 3dx2-y2    0.99754
pop of  0Mn 4dxy      0.00152
pop of  0Mn 4dyz      0.00369
pop of  0Mn 4dz^2     0.00016
pop of  0Mn 4dxz      0.00369
pop of  0Mn 4dx2-y2    0.00152
pop of  0Mn 5dxy      0.00081
pop of  0Mn 5dyz      0.00152
pop of  0Mn 5dz^2     0.00130
pop of  0Mn 5dxz      0.00152
pop of  0Mn 5dx2-y2    0.00081
pop of  0Mn 6dxy      0.00002
pop of  0Mn 6dyz      0.00025
pop of  0Mn 6dz^2     0.00033
pop of  0Mn 6dxz      0.00025
pop of  0Mn 6dx2-y2    0.00002
pop of  0Mn 4fy^3     0.00000
pop of  0Mn 4fxyz     0.00001
pop of  0Mn 4fyz^2    0.00004
pop of  0Mn 4fz^3     0.00007
pop of  0Mn 4fxz^2    0.00004
pop of  0Mn 4fzx^2    0.00001
pop of  0Mn 4fx^3     0.00000
pop of  0Mn 5fy^3     0.00000
pop of  0Mn 5fxyz     0.00007
pop of  0Mn 5fyz^2    0.00030
pop of  0Mn 5fz^3     0.00022
pop of  0Mn 5fxz^2    0.00030
pop of  0Mn 5fzx^2    0.00007
pop of  0Mn 5fx^3     0.00000
pop of  1O 2s        1.89903
pop of  1O 3s        0.00200
pop of  1O 4s        0.00507
pop of  1O 2px       1.84230
pop of  1O 2py       1.84230
pop of  1O 2pz       1.57644
pop of  1O 3px       0.00789
pop of  1O 3py       0.00789
pop of  1O 3pz       0.00422
pop of  1O 4px       0.01643
pop of  1O 4py       0.01643
pop of  1O 4pz       0.00520
pop of  1O 3dxy      0.00000
pop of  1O 3dyz      0.00087
pop of  1O 3dz^2     0.00118
pop of  1O 3dxz      0.00087
pop of  1O 3dx2-y2    0.00000
pop of  1O 4dxy      0.00003
pop of  1O 4dyz      0.00625
pop of  1O 4dz^2     0.00325
pop of  1O 4dxz      0.00625
pop of  1O 4dx2-y2    0.00003
 ** Mulliken atomic charges  **
charge of  0Mn =      1.24395
charge of  1O =     -1.24395

******** <class 'pyscf.mcscf.mc1step.CASSCF'> flags ********
CAS (8e+3e, 9o), ncore = 5, nvir = 62
max_cycle_macro = 50
max_cycle_micro = 4
conv_tol = 1e-07
conv_tol_grad = None
orbital rotation max_stepsize = 0.02
augmented hessian ah_max_cycle = 30
augmented hessian ah_conv_tol = 1e-12
augmented hessian ah_linear dependence = 1e-14
augmented hessian ah_level shift = 0
augmented hessian ah_start_tol = 2.5
augmented hessian ah_start_cycle = 3
augmented hessian ah_grad_trust_region = 3
kf_trust_region = 3
kf_interval = 4
ci_response_space = 4
ci_grad_trust_region = 3
with_dep4 0
natorb = False
canonicalization = True
sorting_mo_energy = False
chkfile = ./scratch/28111/tmpyhbloF
max_memory 4000 MB (current use 254 MB)
internal_rotation = False

******** SHCI flags ********
executable             = /home/bamu3429/softwares/dice/Dice
mpiprefix              = srun -n20
scratchDirectory       = ./scratch/28111
integralFile           = ./FCIDUMP
configFile             = ./input.dat
outputFile             = ./output.dat
maxIter                = 6
sweep_iter             = []
sweep_epsilon          = []
nPTiter                = 0
Stochastic             = True
fullrestart            = False
restart                = False
num_thrds              = 12
memory                 = None

CASCI E = -119.142791485983  S^2 = 8.7500000
Set conv_tol_grad to 0.000316228
macro iter 1 (21 JK  4 micro), CASSCF E = -119.19975450912  dE = -0.056963023  S^2 = 8.7500000
               |grad[o]|=0.0673  |grad[c]|= None  |ddm|=0.436
macro iter 2 (13 JK  4 micro), CASSCF E = -119.220883233148  dE = -0.021128724  S^2 = 8.7500000
               |grad[o]|= 0.15  |grad[c]|= None  |ddm|=0.253
macro iter 3 (9 JK  4 micro), CASSCF E = -119.221084790185  dE = -0.00020155704  S^2 = 8.7500000
               |grad[o]|=0.015  |grad[c]|= None  |ddm|=0.0229
macro iter 4 (8 JK  3 micro), CASSCF E = -119.221085050441  dE = -2.6025593e-07  S^2 = 8.7500000
               |grad[o]|=0.000491  |grad[c]|= None  |ddm|=0.000713
macro iter 5 (3 JK  1 micro), CASSCF E = -119.221085052537  dE = -2.0968542e-09  S^2 = 8.7500000
               |grad[o]|=4.9e-05  |grad[c]|= None  |ddm|=    0
1-step CASSCF converged in 5 macro (54 JK 16 micro) steps
CASSCF canonicalization
CASSCF energy = -119.221085052537


--------------------------------------------------
                 ICMPSPT CALCULATION              
--------------------------------------------------

Perturbation type: MRLCC
With fully internally contracted scheme
With third order correction

Preparing necessary RDMs
......production of RDMs took      67.53 sec
Reading binary 4RDM from DICE
......reading the RDM took         29.44 sec

(GOOD) Trace 4RDM:   7920.0 =   11*   10*    9*    8
(GOOD) Trace 3RDM:    990.0 =   11*   10*    9
(GOOD) Trace 2RDM:    110.0 =   11*   10
(GOOD) Trace 1RDM:     11.0 =   11

Producing the integrals
......production of INT took      40.79 sec

Energy_core = -117.15152470
Energy      = -119.22108505

WARNING: Have to use natural orbitals from CAASCF
         offdiagonal elements:    0.69053228

Basic ingredients written to int/
......savings of INGREDIENTS took      44.70 sec

Second-order:
perturber CCVV --        -0.079215707
perturber CCAV --        -0.044375553
perturber ACVV --        -0.139636035
perturber CCAA --        -0.029321041
perturber AAVV --        -0.194362785
perturber CAAV --        -0.130268367
perturber AAAV --        -0.048998644
perturber AAAC --        -0.001975499
Total:                   -0.668153631

Third-order:              0.000149963

Total PT       --        -0.668003668

