 &FCI NORB=9 ,NELEC=15 ,MS2=1,
  ORBSYM=1,1,1,1,1,1,1,1,1,
  ISYM=1,
 &END
  9.490576690734e-01    1  1  1  1
 -8.459008821859e-03    2  1  1  1
  3.031297347784e-02    2  1  2  1
  7.159692848783e-01    2  2  1  1
  5.273990062177e-04    2  2  2  1
  6.859021790947e-01    2  2  2  2
  2.466401263139e-07    3  1  1  1
 -8.408748847528e-08    3  1  2  1
  1.631847889856e-08    3  1  2  2
  4.776959069311e-02    3  1  3  1
  1.782659360435e-08    3  2  1  1
 -1.453206695311e-08    3  2  2  1
 -3.819194414027e-08    3  2  2  2
  9.232178891435e-04    3  2  3  1
  1.768572571263e-02    3  2  3  2
  8.905468457948e-01    3  3  1  1
 -7.592853843584e-03    3  3  2  1
  7.438016394599e-01    3  3  2  2
  1.319234346309e-07    3  3  3  1
 -4.897485562366e-08    3  3  3  2
  1.027519248553e+00    3  3  3  3
  4.513050957547e-02    4  1  1  1
 -4.777611260115e-03    4  1  2  1
  1.939161312599e-02    4  1  2  2
  9.831586103538e-08    4  1  3  1
  8.920964564224e-08    4  1  3  2
  4.915295441986e-02    4  1  3  3
  3.230918801472e-02    4  1  4  1
  4.474889441303e-02    4  2  1  1
 -1.036474317133e-03    4  2  2  1
  4.101281748274e-02    4  2  2  2
 -1.725896675908e-07    4  2  3  1
 -1.647598512691e-08    4  2  3  2
  7.313818513345e-02    4  2  3  3
  5.793952083274e-03    4  2  4  1
  5.938849787561e-02    4  2  4  2
  6.440146410617e-09    4  3  1  1
  3.680564616369e-07    4  3  2  1
  2.604057291902e-07    4  3  2  2
 -1.263622484287e-04    4  3  3  1
 -1.998125221523e-03    4  3  3  2
  3.287376691201e-07    4  3  3  3
 -2.741180622470e-07    4  3  4  1
  1.194581555317e-07    4  3  4  2
  1.343568586313e-02    4  3  4  3
  4.974193657761e-01    4  4  1  1
  5.804232871802e-03    4  4  2  1
  5.421051323386e-01    4  4  2  2
 -7.032521796198e-07    4  4  3  1
  8.382021642819e-09    4  4  3  2
  4.874185738497e-01    4  4  3  3
 -1.519385726704e-02    4  4  4  1
 -3.685104269453e-03    4  4  4  2
  1.963537487666e-07    4  4  4  3
  6.062316481104e-01    4  4  4  4
  1.578495522516e-06    5  1  1  1
 -3.953528509330e-07    5  1  2  1
  7.346964824915e-07    5  1  2  2
  2.102261048995e-03    5  1  3  1
  6.051848426164e-03    5  1  3  2
  1.971803150041e-06    5  1  3  3
  4.226050581309e-07    5  1  4  1
  3.762883308451e-07    5  1  4  2
 -9.317236674016e-03    5  1  4  3
 -2.430518463008e-07    5  1  4  4
  3.748011355692e-02    5  1  5  1
 -3.290875178179e-07    5  2  1  1
  9.888677971080e-08    5  2  2  1
 -1.572924219516e-07    5  2  2  2
 -1.448814329796e-02    5  2  3  1
  6.132681664968e-06    5  2  3  2
 -2.802546385869e-07    5  2  3  3
  9.364451009384e-08    5  2  4  1
  2.427585558880e-09    5  2  4  2
 -2.401406925053e-04    5  2  4  3
  1.779858664340e-07    5  2  4  4
 -6.428030213742e-03    5  2  5  1
  3.027326400145e-02    5  2  5  2
  1.077163582563e-02    5  3  1  1
  6.812737257922e-03    5  3  2  1
 -9.528458986651e-06    5  3  2  2
  2.119699440716e-07    5  3  3  1
 -5.285105416920e-08    5  3  3  2
 -3.946731247602e-06    5  3  3  3
  5.243215446367e-03    5  3  4  1
  2.728457201738e-04    5  3  4  2
  1.099102367682e-07    5  3  4  3
  3.632124366728e-04    5  3  4  4
 -5.253593547478e-07    5  3  5  1
  1.954259252223e-08    5  3  5  2
  3.977636470174e-02    5  3  5  3
  5.040112028949e-07    5  4  1  1
  1.595432487246e-07    5  4  2  1
 -1.221736686174e-07    5  4  2  2
 -4.760171176601e-03    5  4  3  1
  2.447856079083e-04    5  4  3  2
 -2.409006942740e-07    5  4  3  3
 -5.315335399332e-07    5  4  4  1
  1.392888620615e-07    5  4  4  2
 -2.356728484129e-04    5  4  4  3
  1.742869638376e-07    5  4  4  4
  3.077788421292e-03    5  4  5  1
  3.140520582401e-03    5  4  5  2
  5.451315465785e-09    5  4  5  3
  7.128557044247e-03    5  4  5  4
  8.922809396971e-01    5  5  1  1
 -1.791100403292e-02    5  5  2  1
  7.196561408490e-01    5  5  2  2
 -3.675333811063e-07    5  5  3  1
 -6.074150842656e-08    5  5  3  2
  9.577005151903e-01    5  5  3  3
  5.728535325259e-02    5  5  4  1
  6.383479468411e-02    5  5  4  2
  3.094024686134e-07    5  5  4  3
  4.860911692612e-01    5  5  4  4
  2.140811338624e-06    5  5  5  1
  6.146179793959e-07    5  5  5  2
 -3.498376462248e-06    5  5  5  3
 -3.437306262269e-07    5  5  5  4
  1.047676155269e+00    5  5  5  5
  1.019873337073e-01    6  1  1  1
 -1.818344132371e-03    6  1  2  1
  4.612574962024e-02    6  1  2  2
  4.646677021697e-08    6  1  3  1
 -1.602165342009e-07    6  1  3  2
  8.326835509491e-02    6  1  3  3
  3.667574679173e-03    6  1  4  1
  8.225886053224e-03    6  1  4  2
  2.163337160162e-07    6  1  4  3
 -5.414764665271e-03    6  1  4  4
 -4.063978626606e-08    6  1  5  1
 -3.511551282344e-07    6  1  5  2
 -1.424347341337e-04    6  1  5  3
  6.068194237521e-07    6  1  5  4
  7.080590147636e-02    6  1  5  5
  5.105058037997e-02    6  1  6  1
 -1.971651388537e-02    6  2  1  1
  3.243338522833e-02    6  2  2  1
  5.814352097543e-03    6  2  2  2
  5.611212544035e-08    6  2  3  1
 -7.998420996957e-08    6  2  3  2
 -1.579124621347e-02    6  2  3  3
 -1.319953246154e-02    6  2  4  1
  2.190535852862e-03    6  2  4  2
  8.863073793202e-07    6  2  4  3
  1.233892628259e-02    6  2  4  4
 -6.045598957122e-07    6  2  5  1
  3.940802353868e-09    6  2  5  2
 -2.006029271144e-03    6  2  5  3
  2.814141217426e-07    6  2  5  4
 -3.671764241109e-02    6  2  5  5
  5.118506984800e-04    6  2  6  1
  9.764719689453e-02    6  2  6  2
  1.219926682593e-07    6  3  1  1
 -5.135394759455e-07    6  3  2  1
 -1.156277304047e-07    6  3  2  2
  3.558250937832e-02    6  3  3  1
  3.466227518832e-03    6  3  3  2
  1.008779203776e-07    6  3  3  3
  5.027082439053e-07    6  3  4  1
 -4.501055923296e-07    6  3  4  2
 -5.216762325599e-03    6  3  4  3
 -1.727644328782e-06    6  3  4  4
 -9.119581826574e-03    6  3  5  1
  5.902070025307e-03    6  3  5  2
  7.669329935846e-08    6  3  5  3
 -6.151101876296e-03    6  3  5  4
  9.471926727906e-09    6  3  5  5
 -5.237589903338e-07    6  3  6  1
 -9.685798365819e-07    6  3  6  2
  1.214344764562e-01    6  3  6  3
  2.216531115646e-02    6  4  1  1
 -4.714104763948e-03    6  4  2  1
  1.367232396491e-02    6  4  2  2
  5.694718099515e-07    6  4  3  1
  1.304069425274e-07    6  4  3  2
  2.766218645649e-02    6  4  3  3
 -5.239034930368e-04    6  4  4  1
  2.449191308739e-03    6  4  4  2
 -3.253697190945e-07    6  4  4  3
 -7.237690188885e-03    6  4  4  4
  2.564849972737e-07    6  4  5  1
  1.654090011839e-07    6  4  5  2
 -4.565884352370e-03    6  4  5  3
 -2.166841141055e-07    6  4  5  4
  3.957028603046e-02    6  4  5  5
 -4.884399168294e-03    6  4  6  1
 -8.254486716285e-03    6  4  6  2
  1.965099091877e-06    6  4  6  3
  2.512655113662e-02    6  4  6  4
 -1.783856364613e-06    6  5  1  1
 -4.008033220678e-07    6  5  2  1
 -5.736316074091e-07    6  5  2  2
 -8.310621058371e-03    6  5  3  1
 -1.688474282004e-03    6  5  3  2
 -1.090953540495e-06    6  5  3  3
  8.335783069998e-08    6  5  4  1
  7.340455205119e-08    6  5  4  2
  2.137632608876e-03    6  5  4  3
  7.800156859301e-07    6  5  4  4
  8.787012771935e-03    6  5  5  1
 -1.416153444184e-02    6  5  5  2
 -3.571129958046e-08    6  5  5  3
  4.269170642958e-03    6  5  5  4
 -1.512925856072e-06    6  5  5  5
 -6.032035464371e-07    6  5  6  1
 -1.300449356399e-06    6  5  6  2
 -5.719398119520e-02    6  5  6  3
 -8.219269587781e-07    6  5  6  4
  5.656624191941e-02    6  5  6  5
  8.897470679347e-01    6  6  1  1
  1.370665805958e-03    6  6  2  1
  8.129779355940e-01    6  6  2  2
 -7.112894872363e-07    6  6  3  1
 -7.024654831006e-07    6  6  3  2
  1.036422388672e+00    6  6  3  3
  4.749271045596e-02    6  6  4  1
  5.942575301772e-02    6  6  4  2
  2.217760429157e-06    6  6  4  3
  5.345096678681e-01    6  6  4  4
  1.539614196224e-06    6  6  5  1
 -5.193298778600e-07    6  6  5  2
 -3.953240415305e-02    6  6  5  3
 -1.830349578743e-06    6  6  5  4
  1.007111210964e+00    6  6  5  5
  2.118443151172e-02    6  6  6  1
  4.520953398837e-02    6  6  6  2
 -4.112058678083e-06    6  6  6  3
  7.575307733268e-02    6  6  6  4
  1.952825381624e-06    6  6  6  5
  1.428301006299e+00    6  6  6  6
  2.177491141987e-02    7  1  1  1
  1.954507528289e-02    7  1  2  1
  1.531258773377e-02    7  1  2  2
 -8.779571377746e-08    7  1  3  1
 -2.098867304411e-08    7  1  3  2
  2.169063049761e-02    7  1  3  3
 -9.050193741282e-04    7  1  4  1
  9.430836419500e-03    7  1  4  2
  3.655623516124e-07    7  1  4  3
  4.158046079018e-03    7  1  4  4
 -2.106699895579e-07    7  1  5  1
  1.145637270760e-07    7  1  5  2
  4.800619667389e-03    7  1  5  3
  1.713292522954e-07    7  1  5  4
  1.164408826272e-02    7  1  5  5
  7.032098503824e-03    7  1  6  1
  2.971511675715e-02    7  1  6  2
 -5.661274458115e-07    7  1  6  3
 -4.355228041132e-03    7  1  6  4
 -4.796093414381e-07    7  1  6  5
  2.624507954917e-02    7  1  6  6
  2.405383681584e-02    7  1  7  1
  2.408239186597e-01    7  2  1  1
 -9.014312659552e-03    7  2  2  1
  1.179533038334e-01    7  2  2  2
  9.841943436360e-08    7  2  3  1
 -1.128131002871e-08    7  2  3  2
  2.815329578036e-01    7  2  3  3
  3.970193674530e-02    7  2  4  1
  3.150406551196e-02    7  2  4  2
  2.372230648716e-08    7  2  4  3
 -6.603608012746e-02    7  2  4  4
  1.308609069997e-06    7  2  5  1
 -1.605746041340e-07    7  2  5  2
  7.721099271654e-06    7  2  5  3
 -2.611078059500e-07    7  2  5  4
  2.788150734442e-01    7  2  5  5
  5.058861260479e-02    7  2  6  1
 -2.028286544410e-02    7  2  6  2
  3.520023698673e-07    7  2  6  3
  2.611325150463e-02    7  2  6  4
 -7.682290483202e-07    7  2  6  5
  3.059634223966e-01    7  2  6  6
  8.426993357234e-03    7  2  7  1
  2.254898126290e-01    7  2  7  2
  6.345622314096e-08    7  3  1  1
 -1.950234243400e-08    7  3  2  1
  1.463913317508e-08    7  3  2  2
  4.365673265217e-03    7  3  3  1
  1.050139460156e-02    7  3  3  2
  4.542901951259e-08    7  3  3  3
  1.220336141055e-07    7  3  4  1
  2.222058339530e-09    7  3  4  2
 -5.350052790354e-03    7  3  4  3
 -1.087954208617e-07    7  3  4  4
  4.956136001603e-03    7  3  5  1
 -2.287539448318e-05    7  3  5  2
 -4.376154931182e-08    7  3  5  3
 -2.934329711297e-04    7  3  5  4
 -8.159746583192e-09    7  3  5  5
 -1.999654697462e-07    7  3  6  1
 -4.848841721925e-08    7  3  6  2
  1.128804566662e-02    7  3  6  3
  2.725693520417e-07    7  3  6  4
 -4.490835361676e-03    7  3  6  5
 -7.627974681073e-07    7  3  6  6
 -3.316141044677e-08    7  3  7  1
  3.593472395014e-08    7  3  7  2
  1.408911811799e-02    7  3  7  3
 -3.910721516729e-02    7  4  1  1
  4.654892768783e-03    7  4  2  1
 -2.782795857099e-02    7  4  2  2
 -1.732737412986e-09    7  4  3  1
  4.367359836393e-08    7  4  3  2
 -3.879656190928e-02    7  4  3  3
 -6.639527256463e-03    7  4  4  1
 -4.834510526682e-02    7  4  4  2
 -1.443563430818e-07    7  4  4  3
  3.845823357616e-03    7  4  4  4
 -4.063918644397e-08    7  4  5  1
 -4.405788699011e-08    7  4  5  2
 -1.017232720809e-04    7  4  5  3
  1.123892675925e-07    7  4  5  4
 -4.082955387648e-02    7  4  5  5
 -3.790476648388e-03    7  4  6  1
 -1.367276211462e-04    7  4  6  2
  1.541456343777e-07    7  4  6  3
 -8.909152381803e-03    7  4  6  4
  1.976210421686e-07    7  4  6  5
 -5.379183635285e-02    7  4  6  6
 -6.660043201317e-03    7  4  7  1
 -1.952329282311e-02    7  4  7  2
  1.070727317533e-08    7  4  7  3
  6.384059640859e-02    7  4  7  4
 -2.626328659129e-07    7  5  1  1
  9.205324245818e-08    7  5  2  1
 -1.367355931806e-07    7  5  2  2
 -9.719422659462e-03    7  5  3  1
  6.616473105233e-06    7  5  3  2
 -1.651383505632e-07    7  5  3  3
  9.329332561631e-08    7  5  4  1
 -4.295323584923e-08    7  5  4  2
 -3.104919168763e-04    7  5  4  3
  6.006765174109e-08    7  5  4  4
 -3.686987670972e-03    7  5  5  1
  2.048191293128e-02    7  5  5  2
 -1.167370048023e-08    7  5  5  3
  1.045127076212e-03    7  5  5  4
  4.958652080534e-07    7  5  5  5
 -3.092626496162e-07    7  5  6  1
 -1.139824551651e-07    7  5  6  2
  3.273748262793e-03    7  5  6  3
  1.490445024285e-07    7  5  6  4
 -7.922976340879e-03    7  5  6  5
 -1.777186071680e-07    7  5  6  6
 -4.066412554688e-08    7  5  7  1
 -3.979651929476e-08    7  5  7  2
 -2.183506791140e-06    7  5  7  3
  4.472538680905e-09    7  5  7  4
  1.659530831675e-02    7  5  7  5
  3.200707584034e-02    7  6  1  1
  2.677990448251e-02    7  6  2  1
  3.353576589557e-02    7  6  2  2
 -1.417482763643e-07    7  6  3  1
 -8.522681115434e-08    7  6  3  2
  4.769396239537e-02    7  6  3  3
 -5.955178402424e-03    7  6  4  1
  1.090109720146e-02    7  6  4  2
  8.832706501848e-07    7  6  4  3
  1.071339355387e-02    7  6  4  4
 -2.671178796685e-07    7  6  5  1
 -4.916454220583e-08    7  6  5  2
 -3.107142675742e-03    7  6  5  3
  1.546237826699e-07    7  6  5  4
  2.802690110131e-02    7  6  5  5
  6.338332252420e-03    7  6  6  1
  7.445382026807e-02    7  6  6  2
 -1.306886901782e-06    7  6  6  3
 -1.586172500532e-03    7  6  6  4
 -8.204879439224e-07    7  6  6  5
  1.172227782977e-01    7  6  6  6
  2.444792558923e-02    7  6  7  1
  2.086375793188e-02    7  6  7  2
 -1.276624686568e-07    7  6  7  3
 -8.318716310602e-03    7  6  7  4
 -4.942803065961e-08    7  6  7  5
  7.107965193063e-02    7  6  7  6
  5.662739270472e-01    7  7  1  1
  8.466826227349e-03    7  7  2  1
  5.774979279924e-01    7  7  2  2
 -7.270320863594e-08    7  7  3  1
 -3.751306312635e-08    7  7  3  2
  5.727418223545e-01    7  7  3  3
  1.415725177234e-03    7  7  4  1
  1.984539246665e-02    7  7  4  2
  3.656160815854e-07    7  7  4  3
  5.264269959804e-01    7  7  4  4
  9.215577623039e-08    7  7  5  1
 -4.440293198001e-08    7  7  5  2
 -7.150811128859e-06    7  7  5  3
 -2.054621583404e-08    7  7  5  4
  5.537067377024e-01    7  7  5  5
  2.131594911120e-02    7  7  6  1
  2.406740331703e-02    7  7  6  2
 -5.043060939015e-07    7  7  6  3
  2.312354704776e-03    7  7  6  4
 -2.774971225745e-07    7  7  6  5
  6.391201606451e-01    7  7  6  6
  1.529652060237e-02    7  7  7  1
  2.435849455611e-02    7  7  7  2
 -2.164238602277e-08    7  7  7  3
 -1.818217220483e-02    7  7  7  4
 -8.670622266135e-08    7  7  7  5
  3.424261738244e-02    7  7  7  6
  5.308042195321e-01    7  7  7  7
  1.455206013680e-08    8  1  1  1
  1.074528794371e-08    8  1  2  1
  2.551425113290e-08    8  1  2  2
 -6.936797347718e-03    8  1  3  1
 -5.036183300776e-04    8  1  3  2
  3.421509376560e-08    8  1  3  3
 -2.030644155759e-08    8  1  4  1
  3.288617171531e-08    8  1  4  2
 -1.119177460700e-03    8  1  4  3
  1.261202422307e-07    8  1  4  4
 -5.076022274785e-04    8  1  5  1
  2.146502715959e-03    8  1  5  2
 -4.530827781577e-08    8  1  5  3
  6.608737335958e-04    8  1  5  4
  1.083532510368e-07    8  1  5  5
  1.959313002009e-08    8  1  6  1
 -1.925461853404e-08    8  1  6  2
 -6.428043379699e-03    8  1  6  3
 -9.957921500862e-08    8  1  6  4
  1.557369509673e-03    8  1  6  5
  1.855555780892e-07    8  1  6  6
  1.507844639390e-08    8  1  7  1
  1.299655580116e-08    8  1  7  2
 -3.737983203777e-04    8  1  7  3
  3.258174611701e-09    8  1  7  4
  1.530189185111e-03    8  1  7  5
  2.198566921787e-08    8  1  7  6
  2.485186430319e-08    8  1  7  7
  7.338728044720e-03    8  1  8  1
  8.342378406306e-09    8  2  1  1
  1.034317325760e-08    8  2  2  1
  2.308868201194e-08    8  2  2  2
  1.101742175193e-03    8  2  3  1
  4.295446502064e-04    8  2  3  2
  3.074668345561e-08    8  2  3  3
 -2.683870956073e-09    8  2  4  1
 -7.313620235408e-09    8  2  4  2
  6.028605336357e-04    8  2  4  3
 -3.872278366531e-08    8  2  4  4
 -6.709388009206e-04    8  2  5  1
 -7.417674501453e-06    8  2  5  2
  1.416304047132e-08    8  2  5  3
 -2.721316086343e-04    8  2  5  4
  2.886826326007e-08    8  2  5  5
 -2.034267486031e-09    8  2  6  1
  4.801804969969e-08    8  2  6  2
  2.903508065267e-03    8  2  6  3
  3.855223746741e-08    8  2  6  4
 -1.483402000200e-03    8  2  6  5
  6.227273799483e-08    8  2  6  6
  1.169023011311e-08    8  2  7  1
  1.167285747675e-08    8  2  7  2
 -4.292072145661e-03    8  2  7  3
 -2.004628796456e-08    8  2  7  4
  2.438143628996e-06    8  2  7  5
  4.697849367586e-08    8  2  7  6
  1.946261855670e-08    8  2  7  7
  4.584869563843e-04    8  2  8  1
  1.426480207792e-02    8  2  8  2
 -7.955969988802e-02    8  3  1  1
  2.680109765073e-03    8  3  2  1
 -4.383564096950e-02    8  3  2  2
 -2.917297693279e-08    8  3  3  1
  1.626407817222e-09    8  3  3  2
 -1.024260866913e-01    8  3  3  3
 -1.131596442763e-02    8  3  4  1
 -8.492367838732e-03    8  3  4  2
 -2.693997283188e-08    8  3  4  3
  9.371549467668e-03    8  3  4  4
 -4.215082905057e-07    8  3  5  1
  5.281177626166e-08    8  3  5  2
 -1.499473417105e-06    8  3  5  3
  6.340603576158e-08    8  3  5  4
 -9.478932385715e-02    8  3  5  5
 -1.523140455022e-02    8  3  6  1
  6.883288952913e-03    8  3  6  2
 -7.297099200175e-08    8  3  6  3
 -6.368080322658e-03    8  3  6  4
  2.087531614314e-07    8  3  6  5
 -1.003211633685e-01    8  3  6  6
 -2.326091793596e-03    8  3  7  1
 -6.153325706972e-02    8  3  7  2
 -5.915520352527e-09    8  3  7  3
  1.996176408044e-03    8  3  7  4
  1.394907312821e-08    8  3  7  5
 -6.065601668858e-03    8  3  7  6
 -1.547631949865e-02    8  3  7  7
 -3.782183510169e-09    8  3  8  1
 -5.629250753422e-10    8  3  8  2
  2.180691627255e-02    8  3  8  3
 -1.273895167506e-07    8  4  1  1
 -4.759359054364e-08    8  4  2  1
 -1.098696901144e-07    8  4  2  2
  1.076383636983e-03    8  4  3  1
  4.036632576620e-03    8  4  3  2
 -1.973116094705e-07    8  4  3  3
  4.878126740158e-08    8  4  4  1
 -4.935002696267e-08    8  4  4  2
  9.611426376592e-03    8  4  4  3
 -1.611446986274e-07    8  4  4  4
  1.473738740249e-03    8  4  5  1
 -3.848566405741e-05    8  4  5  2
  3.808266462836e-09    8  4  5  3
 -3.314414292225e-04    8  4  5  4
 -1.812615843237e-07    8  4  5  5
 -9.523805946551e-08    8  4  6  1
 -8.512170633778e-08    8  4  6  2
  5.909071778473e-03    8  4  6  3
  1.401334347235e-07    8  4  6  4
 -2.985795879707e-03    8  4  6  5
 -6.028526329771e-07    8  4  6  6
 -5.303697487162e-08    8  4  7  1
 -6.268544312424e-08    8  4  7  2
 -3.527314937331e-03    8  4  7  3
 -6.393666344547e-09    8  4  7  4
 -4.996143779720e-07    8  4  7  5
 -1.002351314094e-07    8  4  7  6
 -9.049035561206e-08    8  4  7  7
 -1.256874398849e-02    8  4  8  1
 -5.186391125147e-03    8  4  8  2
 -2.801036622190e-08    8  4  8  3
  1.091386847944e-01    8  4  8  4
 -1.925794391858e-03    8  5  1  1
 -9.129638493413e-04    8  5  2  1
  5.444045038405e-07    8  5  2  2
 -3.529238915643e-08    8  5  3  1
  1.334470282208e-08    8  5  3  2
  4.002328174843e-06    8  5  3  3
 -1.171799804063e-03    8  5  4  1
 -9.168773956094e-05    8  5  4  2
 -6.124662418077e-09    8  5  4  3
  6.004207299134e-05    8  5  4  4
  8.131054850551e-08    8  5  5  1
 -3.647775644881e-10    8  5  5  2
 -5.787518147277e-03    8  5  5  3
 -6.374646622979e-09    8  5  5  4
  5.782495749876e-06    8  5  5  5
 -2.568277193669e-04    8  5  6  1
 -1.277763194344e-04    8  5  6  2
 -4.259696690738e-10    8  5  6  3
  1.090472409774e-03    8  5  6  4
  4.160327730702e-08    8  5  6  5
  6.888014770485e-03    8  5  6  6
 -8.385025918355e-04    8  5  7  1
  1.154161845762e-06    8  5  7  2
 -7.215349370490e-12    8  5  7  3
 -1.550455678273e-05    8  5  7  4
 -1.063073448300e-08    8  5  7  5
  4.163870664454e-04    8  5  7  6
  7.354014225227e-07    8  5  7  7
 -1.123057519049e-07    8  5  8  1
  2.878696491170e-09    8  5  8  2
 -2.704865139573e-07    8  5  8  3
  8.028066436486e-08    8  5  8  4
  1.153752364093e-03    8  5  8  5
  2.666588457249e-07    8  6  1  1
  6.551027463347e-08    8  6  2  1
  2.008041473248e-07    8  6  2  2
 -5.787221533872e-03    8  6  3  1
 -5.804353031347e-04    8  6  3  2
  3.324151842822e-07    8  6  3  3
 -5.194738983400e-08    8  6  4  1
  9.847073218660e-08    8  6  4  2
  1.293239844217e-04    8  6  4  3
  3.314471653433e-07    8  6  4  4
  1.301285659290e-03    8  6  5  1
 -1.285390832392e-03    8  6  5  2
 -1.016978743038e-08    8  6  5  3
  1.049942615219e-03    8  6  5  4
  3.560001872855e-07    8  6  5  5
  1.388983576047e-07    8  6  6  1
  1.169618050831e-07    8  6  6  2
 -1.968314277410e-02    8  6  6  3
 -3.101646350664e-07    8  6  6  4
  9.778360200478e-03    8  6  6  5
  1.080996378613e-06    8  6  6  6
  9.358828348172e-08    8  6  7  1
  1.251987333275e-07    8  6  7  2
 -1.975831717125e-03    8  6  7  3
 -2.268954526860e-08    8  6  7  4
 -7.508143743059e-04    8  6  7  5
  2.293949924042e-07    8  6  7  6
  1.680668388020e-07    8  6  7  7
 -7.741698605242e-04    8  6  8  1
  5.679294771792e-04    8  6  8  2
 -4.754068736549e-08    8  6  8  3
 -1.101049706474e-02    8  6  8  4
  6.048480603848e-08    8  6  8  5
  6.042085349369e-03    8  6  8  6
  1.054270338918e-08    8  7  1  1
  4.501750298137e-09    8  7  2  1
  6.056835847505e-09    8  7  2  2
 -2.187669853207e-03    8  7  3  1
 -5.629828675626e-03    8  7  3  2
  1.294210203095e-08    8  7  3  3
 -3.152601592973e-08    8  7  4  1
  1.195066670961e-08    8  7  4  2
 -6.586005450180e-04    8  7  4  3
  7.052018001802e-08    8  7  4  4
 -1.105801985408e-03    8  7  5  1
  1.005849683769e-05    8  7  5  2
 -3.284405093686e-09    8  7  5  3
  2.969779688095e-04    8  7  5  4
  1.798366741550e-08    8  7  5  5
  6.779889537771e-08    8  7  6  1
 -2.471267498477e-10    8  7  6  2
 -6.207760190974e-03    8  7  6  3
 -1.060950294235e-07    8  7  6  4
  2.664080354220e-03    8  7  6  5
  2.463322117142e-07    8  7  6  6
  4.376171187045e-09    8  7  7  1
  2.559406219233e-09    8  7  7  2
  1.738848480438e-03    8  7  7  3
  1.649756125829e-08    8  7  7  4
 -5.402467269076e-06    8  7  7  5
  9.835160428265e-11    8  7  7  6
  6.484726430271e-09    8  7  7  7
  7.988814686966e-04    8  7  8  1
 -1.587401079184e-02    8  7  8  2
 -6.335186682878e-10    8  7  8  3
 -4.444254359991e-03    8  7  8  4
 -1.384133500353e-08    8  7  8  5
  7.636683386505e-04    8  7  8  6
  2.084087361481e-02    8  7  8  7
  3.579993144653e-01    8  8  1  1
  1.165119409595e-02    8  8  2  1
  4.584146073167e-01    8  8  2  2
 -1.080615640436e-07    8  8  3  1
 -1.325023866012e-08    8  8  3  2
  3.232262622238e-01    8  8  3  3
 -3.742478206256e-02    8  8  4  1
 -1.548826627057e-02    8  8  4  2
  1.649662297093e-07    8  8  4  3
  6.153698796840e-01    8  8  4  4
 -1.159224742125e-06    8  8  5  1
  6.320367528436e-08    8  8  5  2
 -1.363895503293e-05    8  8  5  3
  2.450140935722e-07    8  8  5  4
  3.058077924499e-01    8  8  5  5
 -2.459978731295e-02    8  8  6  1
  2.837885737807e-02    8  8  6  2
 -5.034635522973e-07    8  8  6  3
 -2.561974542540e-02    8  8  6  4
  5.352968294772e-07    8  8  6  5
  3.584541006017e-01    8  8  6  6
  4.402349046555e-03    8  8  7  1
 -1.629792279912e-01    8  8  7  2
 -3.451525623142e-08    8  8  7  3
  3.824282309934e-03    8  8  7  4
 -7.383695653787e-08    8  8  7  5
  7.859448599598e-03    8  8  7  6
  4.919996218626e-01    8  8  7  7
  4.233427568087e-09    8  8  8  1
  4.043741356013e-09    8  8  8  2
  4.882705912716e-02    8  8  8  3
  1.590158688093e-08    8  8  8  4
  3.573841231331e-06    8  8  8  5
  6.934824437273e-09    8  8  8  6
 -1.047594865464e-09    8  8  8  7
  7.479412884569e-01    8  8  8  8
  3.652005992675e-03    9  1  1  1
  1.118749386747e-02    9  1  2  1
  5.627702992419e-03    9  1  2  2
 -2.406575029558e-08    9  1  3  1
 -8.543917757373e-09    9  1  3  2
  3.844109326075e-03    9  1  3  3
 -1.153851880228e-03    9  1  4  1
  4.060536974524e-03    9  1  4  2
  1.612842303551e-07    9  1  4  3
  4.171155815431e-03    9  1  4  4
 -1.536109877867e-07    9  1  5  1
  7.004664022231e-08    9  1  5  2
  3.358957552112e-03    9  1  5  3
  7.343600208057e-08    9  1  5  4
 -2.157618484129e-03    9  1  5  5
  1.133071270228e-03    9  1  6  1
  1.536621774234e-02    9  1  6  2
 -2.090946059457e-07    9  1  6  3
 -1.886895753869e-03    9  1  6  4
 -1.939156206650e-07    9  1  6  5
  8.713030011604e-03    9  1  6  6
  9.154772289495e-03    9  1  7  1
 -9.386100877335e-04    9  1  7  2
 -3.895261871316e-09    9  1  7  3
 -3.441649551432e-03    9  1  7  4
 -2.180380052125e-08    9  1  7  5
  1.198800910581e-02    9  1  7  6
  7.901541195787e-03    9  1  7  7
  1.395392887135e-09    9  1  8  1
  5.747599843803e-09    9  1  8  2
  6.099622397168e-04    9  1  8  3
 -2.328392932580e-08    9  1  8  4
 -7.756331040501e-04    9  1  8  5
  2.788956661290e-08    9  1  8  6
  3.025388793677e-09    9  1  8  7
  6.578269950576e-03    9  1  8  8
  1.184776880453e-02    9  1  9  1
  1.588471619358e-01    9  2  1  1
 -3.772860696699e-03    9  2  2  1
  9.555419172837e-02    9  2  2  2
  4.637910875279e-08    9  2  3  1
 -1.160439081027e-08    9  2  3  2
  1.821507782279e-01    9  2  3  3
  2.095167533269e-02    9  2  4  1
  1.574548992427e-02    9  2  4  2
  5.976922857155e-08    9  2  4  3
 -6.881791780936e-03    9  2  4  4
  7.057242205900e-07    9  2  5  1
 -8.605203848169e-08    9  2  5  2
 -4.479836462885e-06    9  2  5  3
 -1.352344559747e-07    9  2  5  4
  1.783852657523e-01    9  2  5  5
  2.892598096369e-02    9  2  6  1
 -8.636136594022e-03    9  2  6  2
  1.236659689995e-07    9  2  6  3
  1.374250926666e-02    9  2  6  4
 -4.328100747953e-07    9  2  6  5
  2.022185590587e-01    9  2  6  6
  5.550142046303e-03    9  2  7  1
  1.204422636226e-01    9  2  7  2
  1.501956770681e-08    9  2  7  3
 -7.391060900603e-03    9  2  7  4
 -2.977708805940e-08    9  2  7  5
  1.413745710672e-02    9  2  7  6
  3.622307079393e-02    9  2  7  7
  1.121258310216e-08    9  2  8  1
  8.728769316746e-09    9  2  8  2
 -3.455315422719e-02    9  2  8  3
 -5.567192005825e-08    9  2  8  4
 -8.709763461703e-08    9  2  8  5
  9.602170172126e-08    9  2  8  6
  5.265267844691e-09    9  2  8  7
 -6.256577539365e-02    9  2  8  8
 -3.856352428109e-04    9  2  9  1
  7.247276027510e-02    9  2  9  2
  2.798657097431e-08    9  3  1  1
  6.206786660721e-09    9  3  2  1
  3.276232526615e-09    9  3  2  2
  1.105497375274e-03    9  3  3  1
  7.269999854269e-03    9  3  3  2
  3.627132825411e-09    9  3  3  3
  3.717393451034e-08    9  3  4  1
  1.582565074715e-08    9  3  4  2
 -1.761296323903e-03    9  3  4  3
 -6.841503028235e-09    9  3  4  4
  3.292719509400e-03    9  3  5  1
  6.337486175839e-07    9  3  5  2
 -1.214292555167e-08    9  3  5  3
  1.222040561839e-05    9  3  5  4
 -1.705993808825e-08    9  3  5  5
 -7.471921748155e-08    9  3  6  1
 -2.780859003064e-09    9  3  6  2
  3.422910539081e-03    9  3  6  3
  7.008866289752e-08    9  3  6  4
 -1.670314698305e-03    9  3  6  5
 -2.382986252002e-07    9  3  6  6
  2.682226435683e-09    9  3  7  1
 -2.456120342128e-09    9  3  7  2
  3.334063131847e-03    9  3  7  3
  4.903019034474e-09    9  3  7  4
  4.681389587145e-06    9  3  7  5
 -2.135106966113e-08    9  3  7  6
  2.900909075014e-09    9  3  7  7
 -8.273797846404e-05    9  3  8  1
 -1.245272257987e-03    9  3  8  2
  6.429269585928e-10    9  3  8  3
 -4.897751982384e-05    9  3  8  4
  1.727308523495e-09    9  3  8  5
 -3.594340297492e-04    9  3  8  6
 -2.117391082844e-04    9  3  8  7
  7.375742114901e-09    9  3  8  8
  6.667064551203e-09    9  3  9  1
  9.924892366315e-11    9  3  9  2
  8.313562742252e-03    9  3  9  3
 -4.901560049607e-03    9  4  1  1
  1.693833529731e-03    9  4  2  1
 -9.671271378187e-03    9  4  2  2
 -8.756758040119e-08    9  4  3  1
  3.523752742620e-08    9  4  3  2
  1.371200617129e-03    9  4  3  3
  5.795978254469e-04    9  4  4  1
 -1.655375504688e-02    9  4  4  2
 -2.826945722412e-08    9  4  4  3
 -1.196323155819e-02    9  4  4  4
  1.543094714075e-07    9  4  5  1
 -1.848684278534e-08    9  4  5  2
  5.194666164353e-06    9  4  5  3
  7.454588969574e-08    9  4  5  4
  1.426997210867e-03    9  4  5  5
  2.029440714383e-03    9  4  6  1
 -7.607729642062e-04    9  4  6  2
 -1.512740913768e-07    9  4  6  3
 -2.221920585861e-03    9  4  6  4
  1.087347468603e-07    9  4  6  5
 -7.867710328835e-03    9  4  6  6
 -2.483280969386e-03    9  4  7  1
  9.323480343507e-03    9  4  7  2
 -1.720979573515e-08    9  4  7  3
  2.489702527384e-02    9  4  7  4
  1.118264021423e-08    9  4  7  5
 -2.334198877700e-03    9  4  7  6
 -1.258110639195e-02    9  4  7  7
  1.604792236925e-08    9  4  8  1
 -1.533664754909e-08    9  4  8  2
 -4.319715864147e-03    9  4  8  3
 -1.789956277821e-09    9  4  8  4
 -7.842490668703e-05    9  4  8  5
  4.478179959608e-08    9  4  8  6
 -9.510423927363e-10    9  4  8  7
 -2.260321344140e-02    9  4  8  8
 -5.827236989683e-04    9  4  9  1
  6.483164981355e-03    9  4  9  2
 -2.356370556391e-08    9  4  9  3
  1.560600253068e-02    9  4  9  4
  9.895054895536e-08    9  5  1  1
  5.363211264482e-08    9  5  2  1
  5.949155459685e-08    9  5  2  2
 -5.542470343571e-03    9  5  3  1
 -1.600300598073e-06    9  5  3  2
  1.215887912677e-07    9  5  3  3
  7.770324660515e-08    9  5  4  1
 -1.767810576291e-09    9  5  4  2
 -1.317993399695e-04    9  5  4  3
  1.017896667554e-07    9  5  4  4
 -2.832948390161e-03    9  5  5  1
  1.236965385155e-02    9  5  5  2
  3.961817354770e-09    9  5  5  3
  1.598085673232e-03    9  5  5  4
  5.535684722770e-07    9  5  5  5
 -1.040793100102e-07    9  5  6  1
 -5.412994176173e-08    9  5  6  2
  2.013157143275e-03    9  5  6  3
  7.929977971648e-08    9  5  6  4
 -6.054519185922e-03    9  5  6  5
 -8.588382523503e-08    9  5  6  6
 -1.184091204226e-08    9  5  7  1
  6.045870082767e-08    9  5  7  2
 -5.942107878213e-06    9  5  7  3
  3.900930345112e-09    9  5  7  4
  4.412814301402e-03    9  5  7  5
 -7.078638152028e-11    9  5  7  6
  2.259640524023e-08    9  5  7  7
  7.064758797135e-04    9  5  8  1
 -1.477611623703e-06    9  5  8  2
 -1.894547243366e-08    9  5  8  3
 -1.745982141871e-05    9  5  8  4
  5.426968920243e-09    9  5  8  5
 -5.486230556964e-04    9  5  8  6
  3.920614953066e-06    9  5  8  7