#INFO: **** input file is /projects/bamu3429/BENCHMARK/fresh_atoms/MRPT/vtz/monoxides/CuO/mrpt.py ****
import json
from pyscf import gto,scf,mcscf, fci, lo, ci, cc
from pyscf.scf import ROHF, UHF,ROKS
import numpy as np
import pandas as pd

# THIS IS WERE IT STARTS ====================================

df=json.load(open("../../../trail.json"))

spins={'ScO':1, 'TiO':2, 'VO':3, 'CrO':4, 'MnO':5, 'FeO':4, 'CuO':1}

nd={'Sc':(1,0), 'Ti':(2,0), 'V':(3,0), 'Cr':(5,0), 'Mn':(5,0), 'Fe':(5,1), 'Cu':(5,4)}

cas={'Sc':3, 'Ti':4, 'V':5, 'Cr':6, 'Mn':7, 'Fe':8, 'Cu':11}

re={'ScO':1.668, 'TiO':1.623, 'VO':1.591, 'CrO':1.621, 'MnO':1.648, 'FeO':1.616, 'CuO':1.725}

datacsv={}
for nm in ['basis','charge','method','molecule','pseudopotential',
           'totalenergy','totalenergy-stocherr','totalenergy-syserr']:
  datacsv[nm]=[]

basis='vtz'
element='Cu'

mol=gto.Mole()
mol.ecp={}
mol.basis={}
for el in [element,'O']:
  mol.ecp[el]=gto.basis.parse_ecp(df[el]['ecp'])
  mol.basis[el]=gto.basis.parse(df[el][basis])
mol.charge=0
mol.spin=spins[element+'O']
mol.build(atom="%s 0. 0. 0.; O 0. 0. %g"%(element,re[element+'O']),verbose=4)

m=ROHF(mol)
m.level_shift=1000.0
dm=m.from_chk("../../../../HF/monoxides/"+element+basis+"0.chk")
hf=m.kernel(dm)
m.analyze()

from pyscf.shciscf import shci
mc = shci.SHCISCF(m, 9, 4+cas[element])
#mc.fcisolver.conv_tol = 1e-14
mc.fcisolver.mpiprefix="srun -n20"
mc.fcisolver.num_thrds=12
mc.verbose = 4
cas=mc.kernel()[0]
 
from pyscf.icmpspt import icmpspt
pt=icmpspt.icmpspt(mc,rdmM=500, PTM=1000,\
                          pttype="MRLCC",\
                          third_order=True,\
                          fully_ic=True,\
                          do_dm4=True)

datacsv['basis'].append(basis)
datacsv['charge'].append(0)
datacsv['method'].append('MRPT')
datacsv['molecule'].append(element)
datacsv['pseudopotential'].append('trail')
datacsv['totalenergy'].append(cas+pt)
datacsv['totalenergy-stocherr'].append(0.0)
datacsv['totalenergy-syserr'].append(0.0)
pd.DataFrame(datacsv).to_csv(element+".csv",index=False)

#INFO: ******************** input file end ********************


System: ('Linux', 'bnode0302.rc.int.colorado.edu', '3.10.0-514.41.1.el7.x86_64', '#1 SMP Wed Jan 17 10:26:16 EST 2018', 'x86_64', 'x86_64')  Threads 28
Python 2.7.11 (default, Mar 22 2016, 01:42:54) 
[GCC Intel(R) C++ gcc 4.8 mode]
numpy 1.11.1  scipy 0.17.1
Date: Wed Apr 18 18:27:48 2018
PySCF version 1.4.6
PySCF path  /projects/bamu3429/softwares/pyscf_uptodate/pyscf
GIT ORIG_HEAD f3591ef22170896a4cdc2aadaa6f5da388ffcadb
GIT HEAD      ref: refs/heads/master
GIT master branch  1847583fb1d2472321833d3c71c8b7008e5fabf5

[INPUT] VERBOSE 4
[INPUT] num atoms = 2
[INPUT] num electrons = 25
[INPUT] charge = 0
[INPUT] spin (= nelec alpha-beta = 2S) = 1
[INPUT] symmetry False subgroup None
[INPUT]  1 Cu     0.000000000000   0.000000000000   0.000000000000 AA    0.000000000000   0.000000000000   0.000000000000 Bohr
[INPUT]  2 O      0.000000000000   0.000000000000   1.725000000000 AA    0.000000000000   0.000000000000   3.259777564875 Bohr
[INPUT] ---------------- BASIS SET ---------------- 
[INPUT] l, kappa, [nprim/nctr], expnt,             c_1 c_2 ...
[INPUT] Cu
[INPUT] 0    0    [12   /1   ]  56.69692001       0.003858
                                20.1703448        -1.511163
                                16.89311889       5.262467
                                14.81117613       -4.140408
                                6.02025146        0.066973
                                2.45829434        0.59039
                                1.29773244        0.435
                                0.73258474        0.171005
                                0.2960966         0.014654
                                0.13350445        -0.001059
                                0.05975279        0.002343
                                0.0277617         7.2e-05
[INPUT] 0    0    [12   /1   ]  56.69692001       -0.000329
                                20.1703448        0.271255
                                16.89311889       -0.991333
                                14.81117613       0.80309
                                6.02025146        -0.009798
                                2.45829434        -0.162788
                                1.29773244        -0.157463
                                0.73258474        -0.146178
                                0.2960966         0.068557
                                0.13350445        0.45286
                                0.05975279        0.4989
                                0.0277617         0.13834
[INPUT] 0    0    [12   /1   ]  56.69692001       -0.002467
                                20.1703448        1.109338
                                16.89311889       -4.134563
                                14.81117613       3.441198
                                6.02025146        -0.295299
                                2.45829434        -0.948212
                                1.29773244        0.104998
                                0.73258474        0.272398
                                0.2960966         0.781279
                                0.13350445        0.403482
                                0.05975279        -0.504819
                                0.0277617         -0.537516
[INPUT] 0    0    [12   /1   ]  56.69692001       0.007169
                                20.1703448        -2.290439
                                16.89311889       8.576039
                                14.81117613       -7.236243
                                6.02025146        1.069217
                                2.45829434        1.904655
                                1.29773244        -1.704423
                                0.73258474        -0.959586
                                0.2960966         0.398011
                                0.13350445        1.19757
                                0.05975279        -0.332252
                                0.0277617         -0.640028
[INPUT] 0    0    [1    /1   ]  0.0277617            1
[INPUT] 0    0    [1    /1   ]  0.01289834           1
[INPUT] 1    0    [12   /1   ]  84.11621248       0.00021
                                41.67010486       -0.003354
                                20.84027636       0.054507
                                13.1175259        -0.185677
                                7.96834211        0.1136
                                4.08681185        0.286879
                                2.29416473        0.386568
                                1.21038981        0.304256
                                0.60503887        0.104511
                                0.23373223        0.008916
                                0.0905483         -0.000333
                                0.03498335        0.000208
[INPUT] 1    0    [12   /1   ]  84.11621248       4e-06
                                41.67010486       0.000359
                                20.84027636       -0.009409
                                13.1175259        0.03575
                                7.96834211        -0.025333
                                4.08681185        -0.064167
                                2.29416473        -0.086609
                                1.21038981        -0.086359
                                0.60503887        0.027529
                                0.23373223        0.324015
                                0.0905483         0.541358
                                0.03498335        0.260105
[INPUT] 1    0    [12   /1   ]  84.11621248       -0.000267
                                41.67010486       -6.4e-05
                                20.84027636       0.047925
                                13.1175259        -0.277144
                                7.96834211        0.331958
                                4.08681185        0.774366
                                2.29416473        -0.100864
                                1.21038981        -0.807332
                                0.60503887        -0.321021
                                0.23373223        0.668842
                                0.0905483         0.367628
                                0.03498335        -0.000935
[INPUT] 1    0    [12   /1   ]  84.11621248       5.7e-05
                                41.67010486       -0.001547
                                20.84027636       0.089243
                                13.1175259        -0.63532
                                7.96834211        1.278388
                                4.08681185        0.622329
                                2.29416473        -1.509876
                                1.21038981        -0.580496
                                0.60503887        1.497693
                                0.23373223        -0.085087
                                0.0905483         -0.662473
                                0.03498335        0.018623
[INPUT] 1    0    [1    /1   ]  0.03498335           1
[INPUT] 1    0    [1    /1   ]  0.01351582           1
[INPUT] 2    0    [10   /1   ]  85.06963135       0.000306
                                37.22826442       -0.00619
                                15.61164981       0.135912
                                9.50636668        0.057336
                                5.30208049        0.240495
                                2.49612499        0.317037
                                1.13949453        0.29791
                                0.51100337        0.208077
                                0.230497          0.090388
                                0.11275594        0.026692
[INPUT] 2    0    [10   /1   ]  85.06963135       -6.7e-05
                                37.22826442       0.005894
                                15.61164981       -0.160149
                                9.50636668        -0.06449
                                5.30208049        -0.378253
                                2.49612499        -0.223915
                                1.13949453        0.192556
                                0.51100337        0.40631
                                0.230497          0.288029
                                0.11275594        0.137167
[INPUT] 2    0    [10   /1   ]  85.06963135       0.000676
                                37.22826442       0.002685
                                15.61164981       -0.164508
                                9.50636668        -0.124255
                                5.30208049        -0.491432
                                2.49612499        0.308336
                                1.13949453        0.656459
                                0.51100337        -0.049831
                                0.230497          -0.426374
                                0.11275594        -0.340335
[INPUT] 2    0    [1    /1   ]  0.11275594           1
[INPUT] 2    0    [1    /1   ]  0.05515864           1
[INPUT] 3    0    [1    /1   ]  5.302569             1
[INPUT] 3    0    [1    /1   ]  1.403579             1
[INPUT] 3    0    [1    /1   ]  0.37152444           1
[INPUT] 4    0    [1    /1   ]  4.659861             1
[INPUT] 4    0    [1    /1   ]  1.23345551           1
[INPUT] O
[INPUT] 0    0    [10   /1   ]  57.663349         -0.002794
                                35.726816         0.023976
                                22.453757         -0.115974
                                14.732301         0.288033
                                9.739917          -0.274786
                                5.042008          -0.083789
                                2.157818          0.063778
                                1.002916          0.410182
                                0.421839          0.504044
                                0.173041          0.172152
[INPUT] 0    0    [1    /1   ]  1.849096             1
[INPUT] 0    0    [1    /1   ]  0.255434             1
[INPUT] 0    0    [1    /1   ]  0.141483             1
[INPUT] 1    0    [10   /1   ]  52.47406          -0.000522
                                32.138432         0.004857
                                19.458579         -0.027749
                                11.839344         0.074258
                                7.91003           0.014369
                                3.670858          0.153479
                                1.53966           0.283685
                                0.647119          0.358201
                                0.267853          0.29559
                                0.107198          0.104889
[INPUT] 1    0    [1    /1   ]  0.622175             1
[INPUT] 1    0    [1    /1   ]  0.193391             1
[INPUT] 1    0    [1    /1   ]  0.052779             1
[INPUT] 2    0    [1    /1   ]  2.324251             1
[INPUT] 2    0    [1    /1   ]  0.656935             1
[INPUT] 2    0    [1    /1   ]  0.2072               1
[INPUT] 3    0    [1    /1   ]  1.423472             1
[INPUT] 3    0    [1    /1   ]  0.48761              1
nuclear repulsion = 34.9717113303652
number of shells = 35
number of NR pGTOs = 480
number of NR cGTOs = 133
basis = {'O': [[0, [57.663349, -0.002794], [35.726816, 0.023976], [22.453757, -0.115974], [14.732301, 0.288033], [9.739917, -0.274786], [5.042008, -0.083789], [2.157818, 0.063778], [1.002916, 0.410182], [0.421839, 0.504044], [0.173041, 0.172152]], [0, [1.849096, 1.0]], [0, [0.255434, 1.0]], [0, [0.141483, 1.0]], [1, [52.47406, -0.000522], [32.138432, 0.004857], [19.458579, -0.027749], [11.839344, 0.074258], [7.91003, 0.014369], [3.670858, 0.153479], [1.53966, 0.283685], [0.647119, 0.358201], [0.267853, 0.29559], [0.107198, 0.104889]], [1, [0.622175, 1.0]], [1, [0.193391, 1.0]], [1, [0.052779, 1.0]], [2, [2.324251, 1.0]], [2, [0.656935, 1.0]], [2, [0.2072, 1.0]], [3, [1.423472, 1.0]], [3, [0.48761, 1.0]]], 'Cu': [[0, [56.69692001, 0.003858], [20.1703448, -1.511163], [16.89311889, 5.262467], [14.81117613, -4.140408], [6.02025146, 0.066973], [2.45829434, 0.59039], [1.29773244, 0.435], [0.73258474, 0.171005], [0.2960966, 0.014654], [0.13350445, -0.001059], [0.05975279, 0.002343], [0.0277617, 7.2e-05]], [0, [56.69692001, -0.000329], [20.1703448, 0.271255], [16.89311889, -0.991333], [14.81117613, 0.80309], [6.02025146, -0.009798], [2.45829434, -0.162788], [1.29773244, -0.157463], [0.73258474, -0.146178], [0.2960966, 0.068557], [0.13350445, 0.45286], [0.05975279, 0.4989], [0.0277617, 0.13834]], [0, [56.69692001, -0.002467], [20.1703448, 1.109338], [16.89311889, -4.134563], [14.81117613, 3.441198], [6.02025146, -0.295299], [2.45829434, -0.948212], [1.29773244, 0.104998], [0.73258474, 0.272398], [0.2960966, 0.781279], [0.13350445, 0.403482], [0.05975279, -0.504819], [0.0277617, -0.537516]], [0, [56.69692001, 0.007169], [20.1703448, -2.290439], [16.89311889, 8.576039], [14.81117613, -7.236243], [6.02025146, 1.069217], [2.45829434, 1.904655], [1.29773244, -1.704423], [0.73258474, -0.959586], [0.2960966, 0.398011], [0.13350445, 1.19757], [0.05975279, -0.332252], [0.0277617, -0.640028]], [0, [0.0277617, 1.0]], [0, [0.01289834, 1.0]], [1, [84.11621248, 0.00021], [41.67010486, -0.003354], [20.84027636, 0.054507], [13.1175259, -0.185677], [7.96834211, 0.1136], [4.08681185, 0.286879], [2.29416473, 0.386568], [1.21038981, 0.304256], [0.60503887, 0.104511], [0.23373223, 0.008916], [0.0905483, -0.000333], [0.03498335, 0.000208]], [1, [84.11621248, 4e-06], [41.67010486, 0.000359], [20.84027636, -0.009409], [13.1175259, 0.03575], [7.96834211, -0.025333], [4.08681185, -0.064167], [2.29416473, -0.086609], [1.21038981, -0.086359], [0.60503887, 0.027529], [0.23373223, 0.324015], [0.0905483, 0.541358], [0.03498335, 0.260105]], [1, [84.11621248, -0.000267], [41.67010486, -6.4e-05], [20.84027636, 0.047925], [13.1175259, -0.277144], [7.96834211, 0.331958], [4.08681185, 0.774366], [2.29416473, -0.100864], [1.21038981, -0.807332], [0.60503887, -0.321021], [0.23373223, 0.668842], [0.0905483, 0.367628], [0.03498335, -0.000935]], [1, [84.11621248, 5.7e-05], [41.67010486, -0.001547], [20.84027636, 0.089243], [13.1175259, -0.63532], [7.96834211, 1.278388], [4.08681185, 0.622329], [2.29416473, -1.509876], [1.21038981, -0.580496], [0.60503887, 1.497693], [0.23373223, -0.085087], [0.0905483, -0.662473], [0.03498335, 0.018623]], [1, [0.03498335, 1.0]], [1, [0.01351582, 1.0]], [2, [85.06963135, 0.000306], [37.22826442, -0.00619], [15.61164981, 0.135912], [9.50636668, 0.057336], [5.30208049, 0.240495], [2.49612499, 0.317037], [1.13949453, 0.29791], [0.51100337, 0.208077], [0.230497, 0.090388], [0.11275594, 0.026692]], [2, [85.06963135, -6.7e-05], [37.22826442, 0.005894], [15.61164981, -0.160149], [9.50636668, -0.06449], [5.30208049, -0.378253], [2.49612499, -0.223915], [1.13949453, 0.192556], [0.51100337, 0.40631], [0.230497, 0.288029], [0.11275594, 0.137167]], [2, [85.06963135, 0.000676], [37.22826442, 0.002685], [15.61164981, -0.164508], [9.50636668, -0.124255], [5.30208049, -0.491432], [2.49612499, 0.308336], [1.13949453, 0.656459], [0.51100337, -0.049831], [0.230497, -0.426374], [0.11275594, -0.340335]], [2, [0.11275594, 1.0]], [2, [0.05515864, 1.0]], [3, [5.302569, 1.0]], [3, [1.403579, 1.0]], [3, [0.37152444, 1.0]], [4, [4.659861, 1.0]], [4, [1.23345551, 1.0]]]}
ecp = {'O': [2, [[-1, [[], [[10.27717748, 6.0]], [[15.99566749, 1232.50197768], [10.46901775, -696.47008301], [14.6384801, -2654.22657081], [12.57591181, 2101.67732548]], [[7.77739102, 61.66306486]]]], [0, [[], [], [[12.39426073, -656683.37638839], [12.38126171, 657858.57667068], [8.57671033, 511.50098405], [9.89256508, -2579.54665641], [28.05641604, -57.68129584], [17.24753607, 970.30940152]], []]], [1, [[], [], [[14.78918914, -363027.24258186], [14.82014018, 361852.52314043], [22.89622221, -1300.20069256], [8.51331893, -181.96869573], [11.48609758, 2194.87589959], [27.22017524, 451.19906206]], []]]]], 'Cu': [10, [[-1, [[], [[19.87662576, 19.0]], [[18.71397328, 13322.8315411], [8.24597653, -143.81933419], [17.99726398, -6835.89401414], [19.50653533, -6413.73731394]], [[9.35936389, 377.6558895]]]], [0, [[], [], [[12.04327682, 217421.85846016], [11.98352277, -215987.47192743], [9.67744501, 1647.53099822], [17.5806873, -5124.79596488], [17.5092588, -963.5691239], [19.80724162, 3071.81011765]], []]], [1, [[], [], [[15.48559732, 189560.54470794], [15.42430413, -181115.65838446], [17.81980355, -1937.67548293], [17.69074392, -2335.92086442], [17.98867265, -8634.52846732], [19.82460345, 4504.58524733]], []]], [2, [[], [], [[10.91448054, -5224.34215851], [14.69969344, -3653.65459704], [11.52370333, 8159.25189768], [19.81153965, -2763.94279097], [18.0197982, 6020.80732635], [14.46480052, -2560.14492979]], []]]]]}
CPU time:         3.71


******** <class 'pyscf.scf.rohf.ROHF'> flags ********
method = ROHF
initial guess = minao
damping factor = 0
level shift factor = 1000.0
DIIS = <class 'pyscf.scf.diis.CDIIS'>
DIIS start cycle = 1
DIIS space = 8
SCF tol = 1e-09
SCF gradient tol = None
max. SCF cycles = 50
direct_scf = True
direct_scf_tol = 1e-13
chkfile to save SCF result = /rc_scratch/bamu3429/tmpl9E3YA
max_memory 4000 MB (current use 118 MB)
num. doubly occ = 12  num. singly occ = 1
Set gradient conv threshold to 3.16228e-05
init E= -212.2434994568
  HOMO = 499.857399210709  LUMO = 999.987786205788
cycle= 1 E= -212.2434994568  delta_E= 2.84e-14  |g|= 7.94e-06  |ddm|= 1.46e-07
  HOMO = -0.142600789219155  LUMO = -0.012213794326738
Extra cycle  E= -212.24349945681  delta_E= -9.52e-12  |g|= 2.43e-06  |ddm|= 1.57e-05
converged SCF energy = -212.24349945681
**** MO energy ****
                Roothaan           | alpha              | beta
MO #1   energy= -5.27368519289377  | -5.27483604321094  | -5.27253434257664  occ= 2
MO #2   energy= -3.54235408132299  | -3.54417847774495  | -3.54052968490102  occ= 2
MO #3   energy= -3.5387861540138   | -3.54080189566371  | -3.53677041267422  occ= 2
MO #4   energy= -3.5378707507975   | -3.53815239230388  | -3.53758910929112  occ= 2
MO #5   energy= -1.1534560403658   | -1.22838587931949  | -1.07852620141211  occ= 2
MO #6   energy= -0.544080319993649 | -0.547104978706362 | -0.541055661280939 occ= 2
MO #7   energy= -0.53427011255244  | -0.542817755264159 | -0.525722469840729 occ= 2
MO #8   energy= -0.526881180938723 | -0.536621543564049 | -0.517140750397908 occ= 2
MO #9   energy= -0.519924879407308 | -0.520455045647607 | -0.519394713167005 occ= 2
MO #10  energy= -0.519921871224805 | -0.520438724133111 | -0.519405018316492 occ= 2
MO #11  energy= -0.402813447108093 | -0.417896994984623 | -0.387729899231553 occ= 2
MO #12  energy= -0.393250987604441 | -0.403398560498074 | -0.383103414710806 occ= 2
MO #13  energy= -0.142600789219155 | -0.519763858051377 | 0.234561858789268  occ= 1
MO #14  energy= -0.012213794326738 | -0.0127866990687649 | -0.0116408895847119 occ= 0
MO #15  energy= 0.025629609253433  | 0.025166481170796  | 0.0260927554932252 occ= 0
MO #16  energy= 0.0264885642288458 | 0.0264212017422193 | 0.0265559267154749 occ= 0
MO #17  energy= 0.0350829789978022 | 0.0346541798454044 | 0.0355117781501948 occ= 0
MO #18  energy= 0.039587570845114  | 0.0395056982335887 | 0.039669443456623  occ= 0
MO #19  energy= 0.0899556948420497 | 0.0881427036435801 | 0.0917686986526001 occ= 0
MO #20  energy= 0.0913158011681424 | 0.0910631734530536 | 0.0915684288832368 occ= 0
MO #21  energy= 0.125164425028097  | 0.124302899172364  | 0.126025950883827  occ= 0
MO #22  energy= 0.156411690164795  | 0.156207067996252  | 0.156616312333345  occ= 0
MO #23  energy= 0.156472882984003  | 0.156271256266643  | 0.15667450970137   occ= 0
MO #24  energy= 0.178757474699275  | 0.175301188084639  | 0.182213813347234  occ= 0
MO #25  energy= 0.181663356979305  | 0.181196895674217  | 0.182129818284393  occ= 0
MO #26  energy= 0.189495638299993  | 0.188755927756171  | 0.19023534884381   occ= 0
MO #27  energy= 0.192016197756513  | 0.190906657152233  | 0.19312573836079   occ= 0
MO #28  energy= 0.227179251188774  | 0.224203447755894  | 0.230155204770757  occ= 0
MO #29  energy= 0.22954097435657   | 0.22914812778202   | 0.22993382093112   occ= 0
MO #30  energy= 0.266947501145254  | 0.266540968877691  | 0.267354033412821  occ= 0
MO #31  energy= 0.334455473934181  | 0.331444452907955  | 0.33746652033868   occ= 0
MO #32  energy= 0.336391145613321  | 0.336026113276738  | 0.336756177949907  occ= 0
MO #33  energy= 0.398544784064687  | 0.396018843228655  | 0.401070724900713  occ= 0
MO #34  energy= 0.488579354687507  | 0.487783231151439  | 0.489375478223576  occ= 0
MO #35  energy= 0.488630132152192  | 0.487812799796326  | 0.489447464508041  occ= 0
MO #36  energy= 0.521678889682133  | 0.514700824613472  | 0.52865697495567   occ= 0
MO #37  energy= 0.523887591416465  | 0.523030379752308  | 0.524744803080625  occ= 0
MO #38  energy= 0.629612364667724  | 0.622804216550588  | 0.636420512784839  occ= 0
MO #39  energy= 0.734767985979241  | 0.725150111464733  | 0.744385860493751  occ= 0
MO #40  energy= 0.735146851471927  | 0.725132366577105  | 0.745161336366749  occ= 0
MO #41  energy= 0.829034573005832  | 0.824975088995783  | 0.833094057015877  occ= 0
MO #42  energy= 0.853828851594356  | 0.837354327870575  | 0.870303360904883  occ= 0
MO #43  energy= 0.860126352528512  | 0.857950565560866  | 0.862302139496158  occ= 0
MO #44  energy= 0.873520730820617  | 0.869155227724592  | 0.87788623391664   occ= 0
MO #45  energy= 1.01227750817901   | 1.01055468805784   | 1.01400032830019   occ= 0
MO #46  energy= 1.0667738234425    | 1.03141409677905   | 1.10213361660192   occ= 0
MO #47  energy= 1.07329400575437   | 1.06879765273021   | 1.07779035877853   occ= 0
MO #48  energy= 1.38456699489589   | 1.38404583521933   | 1.38508815457435   occ= 0
MO #49  energy= 1.38456849667651   | 1.38404554368298   | 1.38509144967003   occ= 0
MO #50  energy= 1.46981038046011   | 1.46835870252124   | 1.47126205839898   occ= 0
MO #51  energy= 1.46984777608934   | 1.46836536455457   | 1.47133018762411   occ= 0
MO #52  energy= 1.59329149575971   | 1.59193761824612   | 1.59464537336168   occ= 0
MO #53  energy= 1.59532590264218   | 1.5951474973718    | 1.59550430791255   occ= 0
MO #54  energy= 1.60352963891942   | 1.60320622332068   | 1.60385305451816   occ= 0
MO #55  energy= 1.80351810475943   | 1.80242146029765   | 1.80461474922121   occ= 0
MO #56  energy= 1.80352934650657   | 1.8024833857434    | 1.80457530726974   occ= 0
MO #57  energy= 1.84559711383947   | 1.83434895211271   | 1.85684528586465   occ= 0
MO #58  energy= 1.85561739743677   | 1.85386628818271   | 1.85736850669082   occ= 0
MO #59  energy= 1.99075522157966   | 1.98483565379561   | 1.99667478936371   occ= 0
MO #60  energy= 2.09959894776648   | 2.08970628377607   | 2.10949161131052   occ= 0
MO #61  energy= 2.0996339047476    | 2.08968517714958   | 2.10958263234561   occ= 0
MO #62  energy= 2.11309941993319   | 2.10290310456777   | 2.1232957352986    occ= 0
MO #63  energy= 2.25443373742334   | 2.21813560719778   | 2.29073186764891   occ= 0
MO #64  energy= 2.25816307111193   | 2.22406355007451   | 2.29226259214934   occ= 0
MO #65  energy= 2.298738083125     | 2.28105616525684   | 2.31642000099315   occ= 0
MO #66  energy= 2.37535181724825   | 2.36828869809048   | 2.38241493640602   occ= 0
MO #67  energy= 2.37583269348916   | 2.36879002313676   | 2.38287536384155   occ= 0
MO #68  energy= 2.3962510182188    | 2.3712965813887    | 2.42120545054999   occ= 0
MO #69  energy= 2.41044307368263   | 2.40668954103415   | 2.41419660633112   occ= 0
MO #70  energy= 2.60292724578288   | 2.59876286202751   | 2.60709162946732   occ= 0
MO #71  energy= 2.60861856306182   | 2.60786849638911   | 2.60936862973454   occ= 0
MO #72  energy= 2.75852468299877   | 2.75082350716896   | 2.76622585882857   occ= 0
MO #73  energy= 3.11942336654746   | 3.11223995099714   | 3.12660678221466   occ= 0
MO #74  energy= 3.13211207454998   | 3.13065259596641   | 3.13357155313354   occ= 0
MO #75  energy= 3.74151531457648   | 3.73801915275887   | 3.7450114763941    occ= 0
MO #76  energy= 3.83144552008352   | 3.76716149168074   | 3.8957295667216    occ= 0
MO #77  energy= 3.84484823496578   | 3.83610835529735   | 3.85358811463422   occ= 0
MO #78  energy= 4.30627081231304   | 4.29932736204848   | 4.31321426257758   occ= 0
MO #79  energy= 4.79163477726549   | 4.79146162922994   | 4.79180792529775   occ= 0
MO #80  energy= 4.7916348401484    | 4.79146163638684   | 4.79180804390998   occ= 0
MO #81  energy= 4.83800060326142   | 4.83729023810664   | 4.8387109684162    occ= 0
MO #82  energy= 4.83800097726109   | 4.83728608326085   | 4.83871587126133   occ= 0
MO #83  energy= 4.92331527967412   | 4.92195313490938   | 4.92467742437066   occ= 0
MO #84  energy= 4.92584199458358   | 4.92565931472001   | 4.92602467444714   occ= 0
MO #85  energy= 4.9999897231851    | 4.99752380440058   | 5.0024556419696    occ= 0
MO #86  energy= 5.73926308394705   | 5.73918562152509   | 5.73934054636901   occ= 0
MO #87  energy= 5.73926308396381   | 5.73918562164705   | 5.73934054628057   occ= 0
MO #88  energy= 5.73994191071366   | 5.73957448169458   | 5.74030933972255   occ= 0
MO #89  energy= 5.73994232157114   | 5.73957421527986   | 5.7403104278624    occ= 0
MO #90  energy= 5.82132082656915   | 5.82029150612568   | 5.82235014701261   occ= 0
MO #91  energy= 5.82132396063332   | 5.82031259477996   | 5.82233532648668   occ= 0
MO #92  energy= 5.85860404300298   | 5.85793527192322   | 5.85927281408271   occ= 0
MO #93  energy= 5.86920280648057   | 5.86385693005258   | 5.87454868290556   occ= 0
MO #94  energy= 5.87599225232132   | 5.87501497045884   | 5.87696953418379   occ= 0
MO #95  energy= 5.90604938281438   | 5.90224764406208   | 5.90985112156671   occ= 0
MO #96  energy= 6.49341389950748   | 6.46929726875648   | 6.51753052961503   occ= 0
MO #97  energy= 6.49350233127355   | 6.46936417566804   | 6.51764048687904   occ= 0
MO #98  energy= 6.58458966988709   | 6.56725437514385   | 6.60192496463034   occ= 0
MO #99  energy= 6.58572562634854   | 6.56973347581975   | 6.60171777687734   occ= 0
MO #100 energy= 6.72595656053835   | 6.70655773274662   | 6.7453553878865    occ= 0
MO #101 energy= 6.75369124561543   | 6.74622217338302   | 6.76116031784784   occ= 0
MO #102 energy= 6.7562224039488    | 6.75223085057188   | 6.76021395732572   occ= 0
MO #103 energy= 6.98818542937888   | 6.98293156395156   | 6.99343929480623   occ= 0
MO #104 energy= 6.98822077948124   | 6.98316409087718   | 6.99327746808532   occ= 0
MO #105 energy= 7.08704823881654   | 7.05127190622656   | 7.12282457140653   occ= 0
MO #106 energy= 7.08730520001755   | 7.05243144906949   | 7.12217895096561   occ= 0
MO #107 energy= 7.17499790093631   | 7.14857212148176   | 7.20142368043334   occ= 0
MO #108 energy= 7.19456570977656   | 7.19025079586801   | 7.19888062368512   occ= 0
MO #109 energy= 7.50442955403082   | 7.4923897029328    | 7.51646940512884   occ= 0
MO #110 energy= 7.64434620483318   | 7.63372479087981   | 7.65496761881868   occ= 0
MO #111 energy= 7.65464139900116   | 7.65275094312893   | 7.65653185487341   occ= 0
MO #112 energy= 8.10758585366524   | 8.10570598833394   | 8.10946571899655   occ= 0
MO #113 energy= 10.8805252378278   | 10.8794796553396   | 10.8815708203103   occ= 0
MO #114 energy= 10.8840059658255   | 10.8837888002874   | 10.8842231313636   occ= 0
MO #115 energy= 11.2637465688298   | 11.2618212561223   | 11.2656718815374   occ= 0
MO #116 energy= 12.5855051927794   | 12.5772267059513   | 12.5937836796075   occ= 0
MO #117 energy= 13.3490810896396   | 13.3383387613819   | 13.3598234178973   occ= 0
MO #118 energy= 15.3019828025281   | 15.3016932026783   | 15.3022724023779   occ= 0
MO #119 energy= 15.3019828412602   | 15.3016932730357   | 15.3022724094847   occ= 0
MO #120 energy= 15.3301389217394   | 15.3289960840635   | 15.3312817594154   occ= 0
MO #121 energy= 15.3301416403285   | 15.3290047607066   | 15.3312785199505   occ= 0
MO #122 energy= 15.3855005386688   | 15.3839585014254   | 15.3870425758895   occ= 0
MO #123 energy= 15.3867570955055   | 15.3865584703203   | 15.3869557206907   occ= 0
MO #124 energy= 15.4878794002637   | 15.4871022090701   | 15.4886565914572   occ= 0
MO #125 energy= 20.2923958272023   | 20.2922206904414   | 20.2925709639631   occ= 0
MO #126 energy= 20.2923958283265   | 20.29222069189     | 20.2925709647631   occ= 0
MO #127 energy= 20.2961250056765   | 20.2955170452452   | 20.2967329661076   occ= 0
MO #128 energy= 20.2961250829816   | 20.2955171728332   | 20.2967329931301   occ= 0
MO #129 energy= 20.322345071517    | 20.3217206087513   | 20.3229695342827   occ= 0
MO #130 energy= 20.3223561145362   | 20.3217386609489   | 20.3229735681235   occ= 0
MO #131 energy= 20.3990970658389   | 20.3982345680535   | 20.3999595636265   occ= 0
MO #132 energy= 20.4011956991838   | 20.4010280501597   | 20.401363348208    occ= 0
MO #133 energy= 20.4611488244499   | 20.4607024104485   | 20.4615952384513   occ= 0
 ** Mulliken pop on meta-lowdin orthogonal AOs  **
 ** Mulliken pop  **
pop of  0Cu 3s        1.99998
pop of  0Cu 4s        0.33591
pop of  0Cu 5s        0.00398
pop of  0Cu 6s        0.00046
pop of  0Cu 7s        0.00172
pop of  0Cu 8s        0.00065
pop of  0Cu 3px       1.99995
pop of  0Cu 3py       1.99994
pop of  0Cu 3pz       1.99988
pop of  0Cu 4px       0.01517
pop of  0Cu 4py       0.00290
pop of  0Cu 4pz       0.00850
pop of  0Cu 5px       0.00185
pop of  0Cu 5py       0.00028
pop of  0Cu 5pz       0.00036
pop of  0Cu 6px       0.00016
pop of  0Cu 6py       0.00001
pop of  0Cu 6pz       0.00022
pop of  0Cu 7px       0.00164
pop of  0Cu 7py       0.00012
pop of  0Cu 7pz       0.00028
pop of  0Cu 8px       0.00021
pop of  0Cu 8py       0.00002
pop of  0Cu 8pz       0.00005
pop of  0Cu 3dxy      1.99859
pop of  0Cu 3dyz      1.98522
pop of  0Cu 3dz^2     1.89040
pop of  0Cu 3dxz      1.99212
pop of  0Cu 3dx2-y2    1.99858
pop of  0Cu 4dxy      0.00078
pop of  0Cu 4dyz      0.00098
pop of  0Cu 4dz^2     0.00231
pop of  0Cu 4dxz      0.00092
pop of  0Cu 4dx2-y2    0.00078
pop of  0Cu 5dxy      0.00009
pop of  0Cu 5dyz      0.00009
pop of  0Cu 5dz^2     0.00078
pop of  0Cu 5dxz      0.00015
pop of  0Cu 5dx2-y2    0.00009
pop of  0Cu 6dxy      0.00030
pop of  0Cu 6dyz      0.00023
pop of  0Cu 6dz^2     0.00158
pop of  0Cu 6dxz      0.00046
pop of  0Cu 6dx2-y2    0.00030
pop of  0Cu 7dxy      0.00005
pop of  0Cu 7dyz      0.00001
pop of  0Cu 7dz^2     0.00096
pop of  0Cu 7dxz      0.00036
pop of  0Cu 7dx2-y2    0.00005
pop of  0Cu 4fy^3     0.00000
pop of  0Cu 4fxyz     0.00000
pop of  0Cu 4fyz^2    0.00001
pop of  0Cu 4fz^3     0.00001
pop of  0Cu 4fxz^2    0.00001
pop of  0Cu 4fzx^2    0.00000
pop of  0Cu 4fx^3     0.00000
pop of  0Cu 5fy^3     0.00000
pop of  0Cu 5fxyz     0.00004
pop of  0Cu 5fyz^2    0.00007
pop of  0Cu 5fz^3     0.00016
pop of  0Cu 5fxz^2    0.00011
pop of  0Cu 5fzx^2    0.00004
pop of  0Cu 5fx^3     0.00000
pop of  0Cu 6fy^3     0.00000
pop of  0Cu 6fxyz     0.00011
pop of  0Cu 6fyz^2    0.00016
pop of  0Cu 6fz^3     0.00007
pop of  0Cu 6fxz^2    0.00037
pop of  0Cu 6fzx^2    0.00012
pop of  0Cu 6fx^3     0.00000
pop of  0Cu 5g-4      0.00000
pop of  0Cu 5g-3      0.00000
pop of  0Cu 5g-2      0.00000
pop of  0Cu 5g-1      0.00000
pop of  0Cu 5g 0      0.00000
pop of  0Cu 5g 1      0.00000
pop of  0Cu 5g 2      0.00000
pop of  0Cu 5g 3      0.00000
pop of  0Cu 5g 4      0.00000
pop of  0Cu 6g-4      0.00000
pop of  0Cu 6g-3      0.00000
pop of  0Cu 6g-2      0.00000
pop of  0Cu 6g-1      0.00001
pop of  0Cu 6g 0      0.00002
pop of  0Cu 6g 1      0.00001
pop of  0Cu 6g 2      0.00000
pop of  0Cu 6g 3      0.00000
pop of  0Cu 6g 4      0.00000
pop of  1O 2s        1.92281
pop of  1O 3s        0.00033
pop of  1O 4s        0.00041
pop of  1O 5s        0.00068
pop of  1O 2px       1.97060
pop of  1O 2py       1.00892
pop of  1O 2pz       1.81544
pop of  1O 3px       0.00001
pop of  1O 3py       0.00001
pop of  1O 3pz       0.00012
pop of  1O 4px       0.00608
pop of  1O 4py       0.00047
pop of  1O 4pz       0.00666
pop of  1O 5px       0.00465
pop of  1O 5py       0.00027
pop of  1O 5pz       0.00105
pop of  1O 3dxy      0.00000
pop of  1O 3dyz      0.00009
pop of  1O 3dz^2     0.00026
pop of  1O 3dxz      0.00012
pop of  1O 3dx2-y2    0.00000
pop of  1O 4dxy      0.00001
pop of  1O 4dyz      0.00059
pop of  1O 4dz^2     0.00246
pop of  1O 4dxz      0.00099
pop of  1O 4dx2-y2    0.00002
pop of  1O 5dxy      0.00001
pop of  1O 5dyz      0.00092
pop of  1O 5dz^2     0.00139
pop of  1O 5dxz      0.00230
pop of  1O 5dx2-y2    0.00003
pop of  1O 4fy^3     0.00004
pop of  1O 4fxyz     0.00000
pop of  1O 4fyz^2    0.00001
pop of  1O 4fz^3     0.00004
pop of  1O 4fxz^2    0.00002
pop of  1O 4fzx^2    0.00001
pop of  1O 4fx^3     0.00002
pop of  1O 5fy^3     0.00004
pop of  1O 5fxyz     0.00001
pop of  1O 5fyz^2    0.00004
pop of  1O 5fz^3     0.00004
pop of  1O 5fxz^2    0.00024
pop of  1O 5fzx^2    0.00002
pop of  1O 5fx^3     0.00002
 ** Mulliken atomic charges  **
charge of  0Cu =      0.74824
charge of  1O =     -0.74824

******** <class 'pyscf.mcscf.mc1step.CASSCF'> flags ********
CAS (8e+7e, 9o), ncore = 5, nvir = 119
max_cycle_macro = 50
max_cycle_micro = 4
conv_tol = 1e-07
conv_tol_grad = None
orbital rotation max_stepsize = 0.02
augmented hessian ah_max_cycle = 30
augmented hessian ah_conv_tol = 1e-12
augmented hessian ah_linear dependence = 1e-14
augmented hessian ah_level shift = 0
augmented hessian ah_start_tol = 2.5
augmented hessian ah_start_cycle = 3
augmented hessian ah_grad_trust_region = 3
kf_trust_region = 3
kf_interval = 4
ci_response_space = 4
ci_grad_trust_region = 3
with_dep4 0
natorb = False
canonicalization = True
sorting_mo_energy = False
chkfile = ./scratch/20289/tmpVUh6hy
max_memory 4000 MB (current use 538 MB)
internal_rotation = False

******** SHCI flags ********
executable             = /home/bamu3429/softwares/dice/Dice
mpiprefix              = srun -n20
scratchDirectory       = ./scratch/20289
integralFile           = ./FCIDUMP
configFile             = ./input.dat
outputFile             = ./output.dat
maxIter                = 6
sweep_iter             = []
sweep_epsilon          = []
nPTiter                = 0
Stochastic             = True
fullrestart            = False
restart                = False
num_thrds              = 12
memory                 = None

CASCI E = -212.244146667496  S^2 = 0.7500000
Set conv_tol_grad to 0.000316228
macro iter 1 (21 JK  4 micro), CASSCF E = -212.254643462745  dE = -0.010496795  S^2 = 0.7500000
               |grad[o]|=0.00751  |grad[c]|= None  |ddm|=0.0844
macro iter 2 (21 JK  4 micro), CASSCF E = -212.26394860827  dE = -0.0093051455  S^2 = 0.7500000
               |grad[o]|=0.0761  |grad[c]|= None  |ddm|=0.0564
macro iter 3 (20 JK  4 micro), CASSCF E = -212.266248448992  dE = -0.0022998407  S^2 = 0.7500000
               |grad[o]|=0.0735  |grad[c]|= None  |ddm|=0.0636
macro iter 4 (19 JK  4 micro), CASSCF E = -212.267929468291  dE = -0.0016810193  S^2 = 0.7500000
               |grad[o]|=0.0557  |grad[c]|= None  |ddm|=0.0751
macro iter 5 (20 JK  4 micro), CASSCF E = -212.268856194625  dE = -0.00092672633  S^2 = 0.7500000
               |grad[o]|=0.0544  |grad[c]|= None  |ddm|=0.0428
macro iter 6 (19 JK  4 micro), CASSCF E = -212.269653322284  dE = -0.00079712766  S^2 = 0.7500000
               |grad[o]|=0.0506  |grad[c]|= None  |ddm|=0.0442
macro iter 7 (20 JK  4 micro), CASSCF E = -212.270238870409  dE = -0.00058554812  S^2 = 0.7500000
               |grad[o]|=0.0454  |grad[c]|= None  |ddm|=0.0424
macro iter 8 (21 JK  4 micro), CASSCF E = -212.270670969868  dE = -0.00043209946  S^2 = 0.7500000
               |grad[o]|=0.0383  |grad[c]|= None  |ddm|=0.0312
macro iter 9 (21 JK  4 micro), CASSCF E = -212.271076741812  dE = -0.00040577194  S^2 = 0.7500000
               |grad[o]|=0.0345  |grad[c]|= None  |ddm|=0.0251
macro iter 10 (21 JK  4 micro), CASSCF E = -212.271372686053  dE = -0.00029594424  S^2 = 0.7500000
               |grad[o]|=0.0316  |grad[c]|= None  |ddm|=0.0203
macro iter 11 (21 JK  4 micro), CASSCF E = -212.271627109138  dE = -0.00025442309  S^2 = 0.7500000
               |grad[o]|=0.0282  |grad[c]|= None  |ddm|= 0.02
macro iter 12 (21 JK  4 micro), CASSCF E = -212.271847994776  dE = -0.00022088564  S^2 = 0.7500000
               |grad[o]|=0.0254  |grad[c]|= None  |ddm|=0.0193
macro iter 13 (21 JK  4 micro), CASSCF E = -212.27203374658  dE = -0.0001857518  S^2 = 0.7500000
               |grad[o]|=0.0252  |grad[c]|= None  |ddm|=0.0175
macro iter 14 (21 JK  4 micro), CASSCF E = -212.272248888605  dE = -0.00021514202  S^2 = 0.7500000
               |grad[o]|=0.0243  |grad[c]|= None  |ddm|=0.018
macro iter 15 (21 JK  4 micro), CASSCF E = -212.27240983105  dE = -0.00016094245  S^2 = 0.7500000
               |grad[o]|=0.0229  |grad[c]|= None  |ddm|=0.0134
macro iter 16 (21 JK  4 micro), CASSCF E = -212.272438551835  dE = -2.8720784e-05  S^2 = 0.7500000
               |grad[o]|=0.0228  |grad[c]|= None  |ddm|=0.00865
macro iter 17 (21 JK  4 micro), CASSCF E = -212.27258079361  dE = -0.00014224177  S^2 = 0.7500000
               |grad[o]|=0.0206  |grad[c]|= None  |ddm|=0.0083
macro iter 18 (21 JK  4 micro), CASSCF E = -212.272695086568  dE = -0.00011429296  S^2 = 0.7500000
               |grad[o]|=0.019  |grad[c]|= None  |ddm|=0.00839
macro iter 19 (21 JK  4 micro), CASSCF E = -212.272768504334  dE = -7.3417766e-05  S^2 = 0.7500000
               |grad[o]|=0.0183  |grad[c]|= None  |ddm|=0.00716
macro iter 20 (21 JK  4 micro), CASSCF E = -212.272818163255  dE = -4.9658921e-05  S^2 = 0.7500000
               |grad[o]|=0.0163  |grad[c]|= None  |ddm|=0.00562
macro iter 21 (21 JK  4 micro), CASSCF E = -212.272861886018  dE = -4.3722764e-05  S^2 = 0.7500000
               |grad[o]|=0.0157  |grad[c]|= None  |ddm|=0.00644
macro iter 22 (21 JK  4 micro), CASSCF E = -212.272913052446  dE = -5.1166427e-05  S^2 = 0.7500000
               |grad[o]|=0.0147  |grad[c]|= None  |ddm|=0.0056
macro iter 23 (21 JK  4 micro), CASSCF E = -212.272952744518  dE = -3.9692072e-05  S^2 = 0.7500000
               |grad[o]|=0.0134  |grad[c]|= None  |ddm|=0.00579
macro iter 24 (21 JK  4 micro), CASSCF E = -212.272987097923  dE = -3.4353405e-05  S^2 = 0.7500000
               |grad[o]|=0.0124  |grad[c]|= None  |ddm|=0.00456
macro iter 25 (21 JK  4 micro), CASSCF E = -212.273013784594  dE = -2.6686671e-05  S^2 = 0.7500000
               |grad[o]|=0.0116  |grad[c]|= None  |ddm|=0.005
macro iter 26 (21 JK  4 micro), CASSCF E = -212.273026874402  dE = -1.3089807e-05  S^2 = 0.7500000
               |grad[o]|=0.0108  |grad[c]|= None  |ddm|=0.00408
macro iter 27 (17 JK  4 micro), CASSCF E = -212.273084854415  dE = -5.7980014e-05  S^2 = 0.7500000
               |grad[o]|=0.0102  |grad[c]|= None  |ddm|=0.00401
macro iter 28 (21 JK  4 micro), CASSCF E = -212.273098367976  dE = -1.351356e-05  S^2 = 0.7500000
               |grad[o]|=0.00946  |grad[c]|= None  |ddm|=0.00449
macro iter 29 (21 JK  4 micro), CASSCF E = -212.273110766271  dE = -1.2398295e-05  S^2 = 0.7500000
               |grad[o]|=0.00888  |grad[c]|= None  |ddm|=0.00342
macro iter 30 (17 JK  4 micro), CASSCF E = -212.273172911739  dE = -6.2145468e-05  S^2 = 0.7500000
               |grad[o]|=0.00837  |grad[c]|= None  |ddm|=0.00438
macro iter 31 (21 JK  4 micro), CASSCF E = -212.273180357451  dE = -7.4457116e-06  S^2 = 0.7500000
               |grad[o]|=0.00796  |grad[c]|= None  |ddm|=0.00436
macro iter 32 (21 JK  4 micro), CASSCF E = -212.273214876376  dE = -3.4518925e-05  S^2 = 0.7500000
               |grad[o]|=0.00768  |grad[c]|= None  |ddm|=0.00322
macro iter 33 (21 JK  4 micro), CASSCF E = -212.273240572988  dE = -2.5696612e-05  S^2 = 0.7500000
               |grad[o]|=0.00739  |grad[c]|= None  |ddm|=0.00324
macro iter 34 (21 JK  4 micro), CASSCF E = -212.273253992088  dE = -1.34191e-05  S^2 = 0.7500000
               |grad[o]|=0.0069  |grad[c]|= None  |ddm|=0.00327
macro iter 35 (21 JK  4 micro), CASSCF E = -212.273249543724  dE = 4.4483635e-06  S^2 = 0.7500000
               |grad[o]|=0.00703  |grad[c]|= None  |ddm|=0.00461
macro iter 36 (21 JK  4 micro), CASSCF E = -212.273282187958  dE = -3.2644234e-05  S^2 = 0.7500000
               |grad[o]|=0.00669  |grad[c]|= None  |ddm|=0.00174
macro iter 37 (21 JK  4 micro), CASSCF E = -212.273273714796  dE = 8.4731627e-06  S^2 = 0.7500000
               |grad[o]|=0.00612  |grad[c]|= None  |ddm|=0.00308
macro iter 38 (21 JK  4 micro), CASSCF E = -212.273339672946  dE = -6.5958151e-05  S^2 = 0.7500000
               |grad[o]|=0.00683  |grad[c]|= None  |ddm|=0.00263
macro iter 39 (21 JK  4 micro), CASSCF E = -212.273344621921  dE = -4.9489747e-06  S^2 = 0.7500000
               |grad[o]|=0.00613  |grad[c]|= None  |ddm|=0.00265
macro iter 40 (7 JK  2 micro), CASSCF E = -212.273398424002  dE = -5.3802081e-05  S^2 = 0.7500000
               |grad[o]|=0.00599  |grad[c]|= None  |ddm|=0.00238
macro iter 41 (7 JK  2 micro), CASSCF E = -212.273451678816  dE = -5.3254814e-05  S^2 = 0.7500000
               |grad[o]|=0.0052  |grad[c]|= None  |ddm|=0.00239
macro iter 42 (7 JK  2 micro), CASSCF E = -212.273495571079  dE = -4.3892263e-05  S^2 = 0.7500000
               |grad[o]|=0.00481  |grad[c]|= None  |ddm|=0.00217
macro iter 43 (7 JK  2 micro), CASSCF E = -212.273527891891  dE = -3.2320813e-05  S^2 = 0.7500000
               |grad[o]|=0.0047  |grad[c]|= None  |ddm|=0.00156
macro iter 44 (7 JK  2 micro), CASSCF E = -212.273555529236  dE = -2.7637345e-05  S^2 = 0.7500000
               |grad[o]|=0.00473  |grad[c]|= None  |ddm|=0.00133
macro iter 45 (7 JK  2 micro), CASSCF E = -212.273584617666  dE = -2.9088429e-05  S^2 = 0.7500000
               |grad[o]|=0.0048  |grad[c]|= None  |ddm|=0.00124
macro iter 46 (7 JK  2 micro), CASSCF E = -212.273609254278  dE = -2.4636612e-05  S^2 = 0.7500000
               |grad[o]|=0.00493  |grad[c]|= None  |ddm|=0.00117
macro iter 47 (7 JK  2 micro), CASSCF E = -212.273632567616  dE = -2.3313338e-05  S^2 = 0.7500000
               |grad[o]|=0.00506  |grad[c]|= None  |ddm|=0.00114
macro iter 48 (7 JK  2 micro), CASSCF E = -212.273654816043  dE = -2.2248427e-05  S^2 = 0.7500000
               |grad[o]|=0.00518  |grad[c]|= None  |ddm|=0.00116
macro iter 49 (7 JK  2 micro), CASSCF E = -212.273678612407  dE = -2.3796364e-05  S^2 = 0.7500000
               |grad[o]|=0.0053  |grad[c]|= None  |ddm|=0.00124
macro iter 50 (7 JK  2 micro), CASSCF E = -212.273698978317  dE = -2.036591e-05  S^2 = 0.7500000
               |grad[o]|=0.00539  |grad[c]|= None  |ddm|=0.00131
1-step CASSCF not converged, 50 macro (881 JK 178 micro) steps
CASSCF canonicalization
CASSCF energy = -212.273698978317


--------------------------------------------------
                 ICMPSPT CALCULATION              
--------------------------------------------------

Perturbation type: MRLCC
With fully internally contracted scheme
With third order correction

Preparing necessary RDMs
......production of RDMs took      71.16 sec
Reading binary 4RDM from DICE
......reading the RDM took         28.29 sec

(GOOD) Trace 4RDM:  32760.0 =   15*   14*   13*   12
(GOOD) Trace 3RDM:   2730.0 =   15*   14*   13
(GOOD) Trace 2RDM:    210.0 =   15*   14
(GOOD) Trace 1RDM:     15.0 =   15

Producing the integrals
......production of INT took     136.54 sec

Energy_core = -166.40400343
Energy      = -212.27369898

WARNING: Have to use natural orbitals from CAASCF
         offdiagonal elements:    2.03139831

Basic ingredients written to int/
......savings of INGREDIENTS took     248.54 sec

Second-order:
perturber CCVV --        -0.138518658
perturber CCAV --        -0.010831090
perturber ACVV --        -0.421937042
perturber CCAA --        -0.000206006
perturber AAVV --        -0.413122591
perturber CAAV --        -0.063626419
perturber AAAV --        -0.104127443
perturber AAAC --        -0.000190609
Total:                   -1.152559857

Third-order:             -0.004112126

Total PT       --        -1.156671984

