 &FCI NORB=9 ,NELEC=15 ,MS2=1,
  ORBSYM=1,1,1,1,1,1,1,1,1,
  ISYM=1,
 &END
  9.435877720729e-01    1  1  1  1
  1.515780157819e-02    2  1  1  1
  3.243232392979e-02    2  1  2  1
  7.126984595357e-01    2  2  1  1
 -6.293019965273e-03    2  2  2  1
  6.889211082599e-01    2  2  2  2
 -2.149738559718e-08    3  1  1  1
 -4.886438445283e-09    3  1  2  1
  3.506188378797e-09    3  1  2  2
  4.491594316613e-02    3  1  3  1
 -2.967907948630e-09    3  2  1  1
  1.716886532876e-10    3  2  2  1
  2.701799028237e-11    3  2  2  2
  1.001928601072e-04    3  2  3  1
  1.827871289983e-02    3  2  3  2
  8.835306485962e-01    3  3  1  1
 -2.247139586764e-03    3  3  2  1
  7.448075336639e-01    3  3  2  2
  1.633575217217e-09    3  3  3  1
  6.017829725117e-11    3  3  3  2
  1.026701573246e+00    3  3  3  3
  5.421810103389e-02    4  1  1  1
 -7.086412316217e-04    4  1  2  1
  2.653816454966e-02    4  1  2  2
 -2.130053231739e-09    4  1  3  1
 -9.032920437022e-10    4  1  3  2
  6.080149540843e-02    4  1  3  3
  3.134157294054e-02    4  1  4  1
  6.242619379841e-02    4  2  1  1
 -1.086704596539e-03    4  2  2  1
  4.460513372567e-02    4  2  2  2
 -1.252256755670e-09    4  2  3  1
  3.720908978320e-11    4  2  3  2
  6.373509683325e-02    4  2  3  3
  7.782973117296e-03    4  2  4  1
  6.446555413657e-02    4  2  4  2
 -2.362493751060e-09    4  3  1  1
  8.134089544028e-10    4  3  2  1
 -7.088283655828e-11    4  3  2  2
  7.400012296793e-03    4  3  3  1
  3.830490860922e-03    4  3  3  2
 -4.068874543437e-10    4  3  3  3
 -1.181416473611e-09    4  3  4  1
 -8.262890943415e-11    4  3  4  2
  7.296686670577e-03    4  3  4  3
  3.975241912022e-01    4  4  1  1
 -9.049781150624e-03    4  4  2  1
  4.957354828668e-01    4  4  2  2
  6.183865363140e-09    4  4  3  1
 -8.046516492421e-11    4  4  3  2
  3.626505193837e-01    4  4  3  3
 -2.804634075997e-02    4  4  4  1
 -2.806184369275e-02    4  4  4  2
  4.023488894743e-10    4  4  4  3
  7.083390866458e-01    4  4  4  4
 -1.845819430782e-08    5  1  1  1
  1.019620615480e-08    5  1  2  1
  1.035349642954e-10    5  1  2  2
  1.002565211620e-02    5  1  3  1
  6.636569388737e-03    5  1  3  2
  9.065186050754e-10    5  1  3  3
 -4.292292295299e-09    5  1  4  1
 -5.529643660181e-11    5  1  4  2
  7.359171998346e-03    5  1  4  3
 -1.677138674851e-09    5  1  4  4
  4.573214742880e-02    5  1  5  1
  7.649594079795e-09    5  2  1  1
 -4.090120553043e-10    5  2  2  1
  1.339270989848e-09    5  2  2  2
 -1.360743673002e-02    5  2  3  1
 -9.093263021890e-06    5  2  3  2
  2.815972290698e-10    5  2  3  3
 -2.766009908235e-11    5  2  4  1
  5.404594397465e-10    5  2  4  2
 -1.354567576799e-04    5  2  4  3
 -2.473928178601e-10    5  2  4  4
  3.946778996591e-03    5  2  5  1
  3.042316962188e-02    5  2  5  2
 -3.204761311524e-03    5  3  1  1
  6.313321539973e-03    5  3  2  1
 -5.055997505750e-05    5  3  2  2
 -3.604628004300e-10    5  3  3  1
  9.692315981317e-10    5  3  3  2
 -2.034896614512e-05    5  3  3  3
 -3.877121591992e-03    5  3  4  1
 -1.573670789809e-06    5  3  4  2
 -4.162696909508e-10    5  3  4  3
 -4.974770762074e-04    5  3  4  4
  1.585109261255e-09    5  3  5  1
 -3.879629666603e-11    5  3  5  2
  3.973781337162e-02    5  3  5  3
 -8.538085372089e-09    5  4  1  1
 -3.382701290746e-10    5  4  2  1
 -3.729308383055e-09    5  4  2  2
 -2.006475631846e-03    5  4  3  1
 -8.615183749646e-07    5  4  3  2
 -9.380469034710e-09    5  4  3  3
 -1.632565404191e-09    5  4  4  1
 -1.536312541449e-09    5  4  4  2
 -3.332202029531e-04    5  4  4  3
  5.237611744918e-09    5  4  4  4
  1.854261536062e-03    5  4  5  1
  3.805760480982e-03    5  4  5  2
 -7.064081269151e-11    5  4  5  3
  2.463721421035e-03    5  4  5  4
  8.930309758336e-01    5  5  1  1
  6.966118446353e-03    5  5  2  1
  7.217793435236e-01    5  5  2  2
  1.808336638837e-09    5  5  3  1
  7.008394643347e-11    5  5  3  2
  9.570233430078e-01    5  5  3  3
  6.233983609029e-02    5  5  4  1
  6.640072238488e-02    5  5  4  2
 -6.358783002798e-10    5  5  4  3
  3.509882561051e-01    5  5  4  4
  2.741395642641e-10    5  5  5  1
 -2.233711240847e-09    5  5  5  2
 -1.611105185682e-05    5  5  5  3
 -1.114304903790e-08    5  5  5  4
  1.046987977108e+00    5  5  5  5
  1.104559664848e-01    6  1  1  1
  1.434959394169e-02    6  1  2  1
  4.740070052508e-02    6  1  2  2
 -1.684732763040e-08    6  1  3  1
 -5.215901706030e-09    6  1  3  2
  8.972080163129e-02    6  1  3  3
  1.063985656364e-02    6  1  4  1
  1.313359456240e-02    6  1  4  2
 -1.678166377220e-09    6  1  4  3
 -3.320265991611e-02    6  1  4  4
 -1.409390894768e-08    6  1  5  1
  1.231142860121e-08    6  1  5  2
  1.600110998087e-02    6  1  5  3
 -1.617225350719e-09    6  1  5  4
  9.060562632019e-02    6  1  5  5
  6.309697550232e-02    6  1  6  1
  2.686711033323e-02    6  2  1  1
  3.000786635768e-02    6  2  2  1
 -4.408877061349e-03    6  2  2  2
 -1.007097755446e-08    6  2  3  1
  3.346900230586e-10    6  2  3  2
  1.643191334744e-02    6  2  3  3
  3.926935817488e-03    6  2  4  1
  4.567251266943e-03    6  2  4  2
  1.854573276965e-09    6  2  4  3
 -2.192294605013e-02    6  2  4  4
  2.207687088717e-08    6  2  5  1
 -6.964773021870e-10    6  2  5  2
 -9.267254487446e-04    6  2  5  3
 -6.714268332301e-10    6  2  5  4
  2.398559997111e-02    6  2  5  5
  1.290330413266e-02    6  2  6  1
  7.849928261949e-02    6  2  6  2
 -2.606521485358e-08    6  3  1  1
 -8.699635717950e-09    6  3  2  1
  6.423455084201e-09    6  3  2  2
  2.701527387010e-02    6  3  3  1
 -4.069664520296e-03    6  3  3  2
  2.524320333653e-09    6  3  3  3
 -3.667571640347e-09    6  3  4  1
 -3.319461891811e-09    6  3  4  2
  9.504069543419e-03    6  3  4  3
  1.174581618833e-08    6  3  4  4
  1.941692891518e-02    6  3  5  1
  5.967749926932e-03    6  3  5  2
 -1.645674467463e-09    6  3  5  3
  1.748788088337e-03    6  3  5  4
 -1.148798495633e-09    6  3  5  5
 -6.092960308985e-11    6  3  6  1
 -1.733832029045e-08    6  3  6  2
  9.096075029768e-02    6  3  6  3
  7.009100534133e-03    6  4  1  1
  6.862695050125e-03    6  4  2  1
  1.359879979848e-02    6  4  2  2
 -3.539213191880e-09    6  4  3  1
 -1.321920171030e-09    6  4  3  2
  2.036344532171e-02    6  4  3  3
 -1.186531654781e-02    6  4  4  1
 -9.788409859598e-04    6  4  4  2
 -2.171052849095e-09    6  4  4  3
 -2.940918400240e-03    6  4  4  4
  2.272789760643e-09    6  4  5  1
 -1.707268651794e-10    6  4  5  2
  6.069217660244e-03    6  4  5  3
 -2.502706884590e-12    6  4  5  4
  1.198436191262e-02    6  4  5  5
 -2.487620892951e-03    6  4  6  1
  8.589543329994e-03    6  4  6  2
 -5.721165650016e-09    6  4  6  3
  2.278235361327e-02    6  4  6  4
 -2.384769101885e-08    6  5  1  1
  2.115278323979e-08    6  5  2  1
 -1.702269522731e-09    6  5  2  2
  2.229130457851e-02    6  5  3  1
 -1.123145519093e-03    6  5  3  2
 -2.574687575363e-09    6  5  3  3
 -5.237730318405e-09    6  5  4  1
 -3.731666991779e-10    6  5  4  2
  8.610095249487e-03    6  5  4  3
 -1.514162285190e-09    6  5  4  4
  2.685149719622e-02    6  5  5  1
  8.196565813042e-03    6  5  5  2
 -1.096584971336e-09    6  5  5  3
 -4.145887628602e-05    6  5  5  4
 -3.930313784927e-09    6  5  5  5
 -1.708280008593e-09    6  5  6  1
  4.499296779192e-08    6  5  6  2
  6.461381414140e-02    6  5  6  3
  9.650348008405e-09    6  5  6  4
  8.372666685961e-02    6  5  6  5
  8.962677640007e-01    6  6  1  1
 -3.074666800667e-03    6  6  2  1
  7.939416724075e-01    6  6  2  2
  2.535182794047e-08    6  6  3  1
 -1.003621272798e-08    6  6  3  2
  1.010962609425e+00    6  6  3  3
  5.672199754132e-02    6  6  4  1
  6.472927705412e-02    6  6  4  2
  1.674551582697e-09    6  6  4  3
  4.039892511245e-01    6  6  4  4
  1.761926508768e-08    6  6  5  1
  2.677387455569e-08    6  6  5  2
  3.626096364070e-02    6  6  5  3
 -6.564709867820e-09    6  6  5  4
  1.015495288928e+00    6  6  5  5
  7.292535727932e-02    6  6  6  1
 -2.838041067585e-02    6  6  6  2
  1.145645848769e-07    6  6  6  3
  4.401912428044e-02    6  6  6  4
  8.104330846034e-08    6  6  6  5
  1.237370709733e+00    6  6  6  6
 -6.642829670097e-03    7  1  1  1
  1.968189979265e-02    7  1  2  1
 -9.654346596063e-03    7  1  2  2
 -4.843159761973e-09    7  1  3  1
  2.253522019957e-10    7  1  3  2
 -1.751991149057e-02    7  1  3  3
 -2.745447167280e-03    7  1  4  1
  9.309926897483e-03    7  1  4  2
  2.366772584912e-10    7  1  4  3
 -3.540411082675e-03    7  1  4  4
  9.064865942489e-09    7  1  5  1
 -1.193985633435e-10    7  1  5  2
  4.923737109898e-03    7  1  5  3
  1.499467008714e-10    7  1  5  4
 -1.061976849653e-02    7  1  5  5
  6.137596789004e-03    7  1  6  1
  2.498168483223e-02    7  1  6  2
 -9.370947704704e-09    7  1  6  3
  4.420233810379e-03    7  1  6  4
  1.646521103480e-08    7  1  6  5
 -1.793827089170e-02    7  1  6  6
  2.321520673003e-02    7  1  7  1
  2.382532776754e-01    7  2  1  1
  6.480838073366e-03    7  2  2  1
  1.170275044079e-01    7  2  2  2
 -3.226346446278e-09    7  2  3  1
  3.350641593579e-11    7  2  3  2
  2.788964720076e-01    7  2  3  3
  4.374200745643e-02    7  2  4  1
  3.102734521768e-02    7  2  4  2
 -4.050718245066e-10    7  2  4  3
 -1.537503115009e-01    7  2  4  4
  9.328803250035e-10    7  2  5  1
  6.096968223936e-10    7  2  5  2
  5.550455165239e-05    7  2  5  3
 -6.733694451201e-09    7  2  5  4
  2.761556251300e-01    7  2  5  5
  5.920374535061e-02    7  2  6  1
  1.676111002768e-02    7  2  6  2
 -6.499463989718e-09    7  2  6  3
  1.271374245076e-02    7  2  6  4
 -6.432548959089e-10    7  2  6  5
  2.899660785554e-01    7  2  6  6
 -8.650843385179e-03    7  2  7  1
  2.234897169479e-01    7  2  7  2
 -2.432328634880e-09    7  3  1  1
 -6.138890454590e-10    7  3  2  1
 -2.861722290958e-11    7  3  2  2
 -3.123312344645e-03    7  3  3  1
  1.020951773927e-02    7  3  3  2
 -4.622783114941e-11    7  3  3  3
 -5.253345276408e-10    7  3  4  1
 -7.341754494061e-11    7  3  4  2
 -1.586331947996e-03    7  3  4  3
 -3.232798030970e-11    7  3  4  4
  2.947457170702e-03    7  3  5  1
  3.372387883846e-05    7  3  5  2
  7.416912483808e-10    7  3  5  3
  1.601532995890e-04    7  3  5  4
  8.078018232397e-11    7  3  5  5
 -5.408147227848e-09    7  3  6  1
 -1.179220726893e-09    7  3  6  2
 -9.660105453839e-03    7  3  6  3
 -6.943740791123e-10    7  3  6  4
 -5.641220340620e-03    7  3  6  5
 -1.274685886960e-08    7  3  6  6
  3.620377769995e-10    7  3  7  1
 -8.024802808328e-12    7  3  7  2
  1.365832356080e-02    7  3  7  3
 -2.026573465043e-02    7  4  1  1
  1.503350691156e-02    7  4  2  1
 -3.156829675209e-02    7  4  2  2
 -4.640716111478e-09    7  4  3  1
 -3.889364675165e-11    7  4  3  2
 -4.166698105022e-02    7  4  3  3
 -3.037294553701e-03    7  4  4  1
 -6.087478668970e-02    7  4  4  2
 -9.496047058054e-11    7  4  4  3
  8.919310433487e-03    7  4  4  4
 -4.239767985798e-12    7  4  5  1
 -1.477535189055e-09    7  4  5  2
  2.094558874645e-04    7  4  5  3
  6.511466370597e-10    7  4  5  4
 -3.271204201119e-02    7  4  5  5
  1.716949351769e-03    7  4  6  1
  1.428622674542e-02    7  4  6  2
 -9.350859245602e-09    7  4  6  3
  1.311376776987e-03    7  4  6  4
  5.484477286304e-10    7  4  6  5
 -4.673386730918e-02    7  4  6  6
 -7.142865503587e-04    7  4  7  1
 -7.907031002143e-03    7  4  7  2
  5.950647106984e-11    7  4  7  3
  7.618762938752e-02    7  4  7  4
  5.726093541882e-09    7  5  1  1
 -6.143797133417e-11    7  5  2  1
  7.065965073911e-10    7  5  2  2
 -9.339698002528e-03    7  5  3  1
 -9.151575235961e-06    7  5  3  2
  1.362722697005e-10    7  5  3  3
  2.450213129913e-11    7  5  4  1
 -1.261713383383e-09    7  5  4  2
 -1.121727001016e-05    7  5  4  3
  3.577627338082e-10    7  5  4  4
  1.957827562967e-03    7  5  5  1
  2.040951213631e-02    7  5  5  2
  3.062691592197e-12    7  5  5  3
  1.834994081498e-03    7  5  5  4
 -1.500583687970e-09    7  5  5  5
  8.369802881648e-09    7  5  6  1
 -4.294340212800e-10    7  5  6  2
  2.783224645924e-03    7  5  6  3
  4.527856264272e-11    7  5  6  4
  4.291919137645e-03    7  5  6  5
  1.664409692000e-08    7  5  6  6
 -3.440507843623e-10    7  5  7  1
  6.148619415640e-10    7  5  7  2
 -1.120424321507e-05    7  5  7  3
  7.301104118467e-10    7  5  7  4
  1.641367132957e-02    7  5  7  5
 -9.438789819306e-03    7  6  1  1
  2.275741288192e-02    7  6  2  1
 -2.298213056701e-02    7  6  2  2
 -1.068568217127e-08    7  6  3  1
  3.964427665701e-10    7  6  3  2
 -3.091052546855e-02    7  6  3  3
 -2.467438064692e-03    7  6  4  1
  3.824160591976e-03    7  6  4  2
  7.716411526012e-10    7  6  4  3
 -6.224285349196e-03    7  6  4  4
  1.299008857466e-08    7  6  5  1
 -5.122580723770e-10    7  6  5  2
 -3.844592601774e-03    7  6  5  3
  4.133960823287e-10    7  6  5  4
 -2.246248106117e-02    7  6  5  5
  4.938870606561e-03    7  6  6  1
  5.415411124949e-02    7  6  6  2
 -2.032541092712e-08    7  6  6  3
 -4.784206974407e-04    7  6  6  4
  2.348551243866e-08    7  6  6  5
 -8.247239988554e-02    7  6  6  6
  1.702679393666e-02    7  6  7  1
 -1.584919428558e-02    7  6  7  2
  6.954809256314e-10    7  6  7  3
  9.707968657832e-03    7  6  7  4
 -5.045273253514e-10    7  6  7  5
  4.938042411884e-02    7  6  7  6
  5.557980046304e-01    7  7  1  1
 -1.320633723639e-02    7  7  2  1
  5.797816867074e-01    7  7  2  2
  7.732469381797e-09    7  7  3  1
  5.747270275507e-01    7  7  3  3
  7.397688003972e-03    7  7  4  1
  2.368018003997e-02    7  7  4  2
  1.912530956910e-10    7  7  4  3
  5.205828174226e-01    7  7  4  4
 -2.864651226482e-10    7  7  5  1
  1.016985289330e-09    7  7  5  2
 -1.378769846225e-04    7  7  5  3
 -7.814465309348e-10    7  7  5  4
  5.542142484538e-01    7  7  5  5
  1.453813374381e-02    7  7  6  1
 -2.058987878509e-02    7  7  6  2
  1.462071707487e-08    7  7  6  3
  8.280628159059e-03    7  7  6  4
 -1.493059682154e-09    7  7  6  5
  6.216180837900e-01    7  7  6  6
 -1.079261934289e-02    7  7  7  1
  2.228889515409e-02    7  7  7  2
 -3.088344295094e-11    7  7  7  3
 -2.865460838339e-02    7  7  7  4
  5.239077607072e-10    7  7  7  5
 -2.532709232364e-02    7  7  7  6
  5.341692779191e-01    7  7  7  7
  5.280253402468e-10    8  1  1  1
  7.296820772344e-10    8  1  2  1
 -2.213452294887e-09    8  1  2  2
 -5.761989986452e-03    8  1  3  1
 -5.756716016562e-04    8  1  3  2
 -3.379024252749e-09    8  1  3  3
 -6.452077157265e-11    8  1  4  1
  1.601869789440e-10    8  1  4  2
 -2.683998670633e-03    8  1  4  3
 -8.935245004104e-10    8  1  4  4
 -1.253322886618e-03    8  1  5  1
  1.869724036919e-03    8  1  5  2
  2.286955522953e-11    8  1  5  3
  1.694491478334e-04    8  1  5  4
 -3.627945901491e-09    8  1  5  5
  1.986320377979e-09    8  1  6  1
  1.357559185330e-09    8  1  6  2
 -3.837285610903e-03    8  1  6  3
  3.276194623793e-10    8  1  6  4
 -2.987399842292e-03    8  1  6  5
 -6.986468815049e-09    8  1  6  6
  9.531137178913e-10    8  1  7  1
 -9.949812324273e-10    8  1  7  2
  1.264109873617e-03    8  1  7  3
  6.394731676205e-10    8  1  7  4
  1.452598336790e-03    8  1  7  5
  1.952415727590e-09    8  1  7  6
 -2.036719734052e-09    8  1  7  7
  7.234628382527e-03    8  1  8  1
  3.788516326664e-10    8  2  1  1
 -3.664649416351e-10    8  2  2  1
  1.255012714589e-12    8  2  2  2
 -1.409596689145e-03    8  2  3  1
  4.928917015843e-04    8  2  3  2
 -1.638844271891e-12    8  2  3  3
  3.142932070439e-10    8  2  4  1
 -1.101065796819e-11    8  2  4  2
  4.293515239774e-04    8  2  4  3
  1.016578195190e-11    8  2  4  4
 -1.384619442981e-03    8  2  5  1
  1.132093784562e-05    8  2  5  2
  5.727802754715e-05    8  2  5  4
  5.927363874183e-11    8  2  5  5
  9.128813833708e-11    8  2  6  1
 -6.935772666535e-10    8  2  6  2
 -2.584628850403e-03    8  2  6  3
  5.737292192097e-10    8  2  6  4
 -2.366660789336e-03    8  2  6  5
 -9.810923644751e-10    8  2  6  6
 -3.689910801472e-10    8  2  7  1
  2.273427172174e-12    8  2  7  2
 -4.459290313971e-03    8  2  7  3
 -6.442134340197e-12    8  2  7  4
  2.051270829807e-06    8  2  7  5
 -6.925704103581e-10    8  2  7  6
 -1.376632234372e-12    8  2  7  7
  1.924182909791e-04    8  2  8  1
  1.411969646763e-02    8  2  8  2
 -7.929384013034e-02    8  3  1  1
 -2.015286683486e-03    8  3  2  1
 -4.388483436591e-02    8  3  2  2
  7.089186775327e-10    8  3  3  1
 -8.874187741256e-12    8  3  3  2
 -1.022446313695e-01    8  3  3  3
 -1.308952688934e-02    8  3  4  1
 -6.990036812386e-03    8  3  4  2
  1.296806764438e-10    8  3  4  3
  3.678624437640e-02    8  3  4  4
 -2.601569650886e-10    8  3  5  1
  6.435384671770e-11    8  3  5  2
 -1.178568035646e-05    8  3  5  3
  2.060079453041e-09    8  3  5  4
 -9.462939848894e-02    8  3  5  5
 -1.761750788830e-02    8  3  6  1
 -6.341665181622e-03    8  3  6  2
  1.469355483865e-09    8  3  6  3
 -3.723828573593e-03    8  3  6  4
  3.216029975700e-10    8  3  6  5
 -9.708120353927e-02    8  3  6  6
  3.041797771510e-03    8  3  7  1
 -6.137254663977e-02    8  3  7  2
 -2.479899489663e-12    8  3  7  3
  1.540172011832e-04    8  3  7  4
 -1.324028759035e-10    8  3  7  5
  4.470935177483e-03    8  3  7  6
 -1.518921640583e-02    8  3  7  7
  4.501453502978e-10    8  3  8  1
 -3.586440306564e-12    8  3  8  2
  2.175631093370e-02    8  3  8  3
  5.763469574456e-11    8  4  1  1
 -5.703254858763e-10    8  4  2  1
 -4.484041055274e-11    8  4  2  2
 -4.937422074224e-03    8  4  3  1
  4.270141888139e-03    8  4  3  2
 -4.998706289719e-11    8  4  3  3
  5.155854913849e-10    8  4  4  1
 -1.127056434677e-11    8  4  4  2
  1.478589693685e-02    8  4  4  3
 -2.468444998085e-11    8  4  4  4
 -1.979832090425e-03    8  4  5  1
  5.125781716400e-05    8  4  5  2
  5.699628303646e-10    8  4  5  3
  1.072429784878e-04    8  4  5  4
  7.420314835257e-11    8  4  5  5
 -1.008704553029e-09    8  4  6  1
 -1.126859927895e-09    8  4  6  2
 -7.379497623635e-03    8  4  6  3
  1.004337425816e-09    8  4  6  4
 -5.335803198159e-03    8  4  6  5
 -4.531226582645e-09    8  4  6  6
 -7.525232192008e-10    8  4  7  1
 -4.685436022085e-12    8  4  7  2
 -5.694336963920e-03    8  4  7  3
 -2.552085748082e-12    8  4  7  4
  3.576585876882e-05    8  4  7  5
 -1.470513131206e-09    8  4  7  6
 -5.210152151150e-11    8  4  7  7
 -1.283871126576e-02    8  4  8  1
 -3.108802480625e-03    8  4  8  2
  1.070396346710e-10    8  4  8  3
  1.400092009272e-01    8  4  8  4
  9.347569336357e-04    8  5  1  1
 -1.014635716654e-03    8  5  2  1
  3.553741957829e-05    8  5  2  2
  3.544495066816e-11    8  5  3  1
 -3.772549230720e-11    8  5  3  2
  5.143564358767e-05    8  5  3  3
  6.010658837478e-05    8  5  4  1
  1.016011031868e-05    8  5  4  2
  3.541811450087e-10    8  5  4  3
  4.396137269936e-06    8  5  4  4
 -6.948209709296e-10    8  5  5  1
  2.057049614080e-11    8  5  5  2
 -5.777519950610e-03    8  5  5  3
  4.699957023136e-12    8  5  5  4
  6.870126707692e-05    8  5  5  5
 -2.252808703335e-03    8  5  6  1
 -4.762089918170e-04    8  5  6  2
  2.644412167203e-10    8  5  6  3
 -7.864375092160e-04    8  5  6  4
 -6.815142436368e-10    8  5  6  5
 -5.958347292128e-03    8  5  6  6
 -8.148432334614e-04    8  5  7  1
  1.357478558228e-05    8  5  7  2
 -2.594295587474e-10    8  5  7  3
 -9.915500081981e-06    8  5  7  4
 -6.846394806105e-12    8  5  7  5
  4.912807270498e-04    8  5  7  6
  3.346397623092e-05    8  5  7  7
 -2.701080836870e-10    8  5  8  1
 -2.905479188119e-11    8  5  8  2
 -7.089729118349e-06    8  5  8  3
  2.194056459178e-09    8  5  8  4
  1.151910757172e-03    8  5  8  5
 -9.917144895054e-10    8  6  1  1
  1.051478677881e-09    8  6  2  1
 -4.132855910319e-09    8  6  2  2
 -4.199028954566e-03    8  6  3  1
  1.926615982493e-04    8  6  3  2
 -6.264448188153e-09    8  6  3  3
 -6.666640498418e-11    8  6  4  1
  4.400735173488e-10    8  6  4  2
 -1.885674471322e-03    8  6  4  3
 -1.698815207323e-09    8  6  4  4
 -3.073081909972e-03    8  6  5  1
 -1.482477725568e-03    8  6  5  2
  2.921894800923e-10    8  6  5  3
 -2.727654717529e-04    8  6  5  4
 -6.054741342781e-09    8  6  5  5
 -1.362375808846e-09    8  6  6  1
  1.819750905449e-09    8  6  6  2
 -1.438667856558e-02    8  6  6  3
  7.242454351384e-10    8  6  6  4
 -1.063182829829e-02    8  6  6  5
 -2.506194906009e-08    8  6  6  6
  1.671721662904e-09    8  6  7  1
 -1.808282062446e-09    8  6  7  2
  2.233487562383e-03    8  6  7  3
  1.302503958620e-09    8  6  7  4
 -7.770122883265e-04    8  6  7  5
  3.389070797289e-09    8  6  7  6
 -3.830820830141e-09    8  6  7  7
 -2.655144534917e-03    8  6  8  1
 -2.688338676968e-04    8  6  8  2
  8.703033014750e-10    8  6  8  3
 -4.635856225165e-05    8  6  8  4
 -4.270999668368e-11    8  6  8  5
  4.709320920372e-03    8  6  8  6
  5.096813697094e-10    8  7  1  1
  3.988932523513e-10    8  7  2  1
 -3.744162588673e-12    8  7  2  2
  2.489068491165e-03    8  7  3  1
 -5.883771527157e-03    8  7  3  2
  8.199761215850e-12    8  7  3  3
 -1.426007316860e-10    8  7  4  1
  1.450134282306e-11    8  7  4  2
 -2.646981711588e-03    8  7  4  3
 -4.142139545564e-12    8  7  4  4
 -5.841409298840e-05    8  7  5  1
 -1.511537597105e-05    8  7  5  2
 -3.514836912843e-10    8  7  5  3
 -7.952930300681e-05    8  7  5  4
 -9.571316576359e-11    8  7  5  5
  1.736672764947e-09    8  7  6  1
  7.649734087740e-10    8  7  6  2
  5.883685019436e-03    8  7  6  3
 -3.545962354730e-10    8  7  6  4
  3.788249277019e-03    8  7  6  5
  5.001191607183e-09    8  7  6  6
  4.340844151615e-10    8  7  7  1
 -1.976887987655e-12    8  7  7  2
  2.226098928907e-03    8  7  7  3
  1.152796380827e-11    8  7  7  4
 -8.175196118654e-07    8  7  7  5
  8.212271437577e-10    8  7  7  6
 -2.691415860227e-12    8  7  7  7
  9.882432458975e-04    8  7  8  1
 -1.594392860370e-02    8  7  8  2
 -6.260734949363e-12    8  7  8  3
 -1.022427443553e-02    8  7  8  4
 -1.585577638635e-10    8  7  8  5
  6.343789636949e-05    8  7  8  6
  2.157149139942e-02    8  7  8  7
  3.523734019881e-01    8  8  1  1
 -1.077869987890e-02    8  8  2  1
  4.575867770069e-01    8  8  2  2
  6.743662606268e-09    8  8  3  1
 -2.822210645820e-11    8  8  3  2
  3.231104636553e-01    8  8  3  3
 -3.490952322493e-02    8  8  4  1
 -1.731419859485e-02    8  8  4  2
  4.749127840146e-10    8  8  4  3
  6.973016162349e-01    8  8  4  4
 -1.162537937030e-09    8  8  5  1
  5.006157773429e-11    8  8  5  2
 -1.055778554110e-04    8  8  5  3
  5.927240085915e-09    8  8  5  4
  3.057270666055e-01    8  8  5  5
 -3.674246725702e-02    8  8  6  1
 -2.222644115410e-02    8  8  6  2
  1.311186344221e-08    8  8  6  3
 -2.240795726565e-03    8  8  6  4
 -5.550724924570e-10    8  8  6  5
  3.541907416712e-01    8  8  6  6
 -9.846846889452e-04    8  8  7  1
 -1.630275101201e-01    8  8  7  2
 -9.462918916531e-12    8  8  7  3
 -9.336056165412e-03    8  8  7  4
  1.244678197431e-11    8  8  7  5
 -4.130747081911e-03    8  8  7  6
  4.936000477570e-01    8  8  7  7
 -7.380021447985e-10    8  8  8  1
 -1.497360716686e-12    8  8  8  2
  4.878038435383e-02    8  8  8  3
 -4.562740414980e-11    8  8  8  4
  1.202571473135e-05    8  8  8  5
 -1.454961954858e-09    8  8  8  6
  7.480896033065e-01    8  8  8  8
  1.096657546348e-03    9  1  1  1
  1.126004412731e-02    9  1  2  1
 -2.719240632385e-03    9  1  2  2
 -1.127872548386e-09    9  1  3  1
  4.625191918375e-10    9  1  3  2
 -4.675671173579e-03    9  1  3  3
 -1.455788661165e-03    9  1  4  1
  4.182595798888e-03    9  1  4  2
  8.290290007782e-10    9  1  4  3
 -9.216921661819e-04    9  1  4  4
  5.797228274344e-09    9  1  5  1
 -1.092076023692e-10    9  1  5  2
  3.012490549418e-03    9  1  5  3
 -7.631437766869e-11    9  1  5  4
 -4.373200021792e-04    9  1  5  5
  3.647891570356e-03    9  1  6  1
  1.366572450082e-02    9  1  6  2
 -2.028276629268e-09    9  1  6  3
  2.897628400073e-03    9  1  6  4
  1.150122180680e-08    9  1  6  5
 -5.251890096610e-03    9  1  6  6
  8.982227961327e-03    9  1  7  1
 -2.348141702990e-03    9  1  7  2
 -2.736372124250e-10    9  1  7  3
  4.406748525107e-04    9  1  7  4
 -1.762231875374e-10    9  1  7  5
  8.952607461059e-03    9  1  7  6
 -4.340811545328e-03    9  1  7  7
  2.018463794982e-10    9  1  8  1
 -2.466291794217e-10    9  1  8  2
  6.074533250108e-04    9  1  8  3
 -1.431466665319e-11    9  1  8  4
 -8.973683818137e-04    9  1  8  5
  1.844386488856e-10    9  1  8  6
 -8.714522767678e-11    9  1  8  7
 -1.491685622397e-05    9  1  8  8
  1.253564539711e-02    9  1  9  1
  1.586951160029e-01    9  2  1  1
  2.821377045218e-03    9  2  2  1
  9.617994086975e-02    9  2  2  2
 -7.622517603688e-10    9  2  3  1
  1.335246061473e-11    9  2  3  2
  1.823338500678e-01    9  2  3  3
  2.425494597784e-02    9  2  4  1
  1.584472250735e-02    9  2  4  2
 -1.939494721231e-10    9  2  4  3
 -5.483439098669e-02    9  2  4  4
  4.317777147595e-10    9  2  5  1
  3.282895316914e-10    9  2  5  2
  1.828466821095e-05    9  2  5  3
 -3.694915779042e-09    9  2  5  4
  1.789324208917e-01    9  2  5  5
  3.359681184765e-02    9  2  6  1
  7.483706867926e-03    9  2  6  2
 -1.656967669274e-09    9  2  6  3
  7.679191584951e-03    9  2  6  4
 -5.855476862514e-10    9  2  6  5
  1.952891695852e-01    9  2  6  6
 -6.057246935906e-03    9  2  7  1
  1.207321398964e-01    9  2  7  2
 -4.671882280667e-12    9  2  7  3
 -2.695789464402e-03    9  2  7  4
  4.398463851953e-10    9  2  7  5
 -1.088657102229e-02    9  2  7  6
  3.547689982899e-02    9  2  7  7
 -8.874814675047e-10    9  2  8  1
  1.520110981643e-12    9  2  8  2
 -3.467979741249e-02    9  2  8  3
 -1.299922726559e-11    9  2  8  4
  1.346177201754e-05    9  2  8  5
 -1.636316192067e-09    9  2  8  6
 -1.131170862418e-12    9  2  8  7
 -6.338966279268e-02    9  2  8  8
 -1.503848997173e-03    9  2  9  1
  7.336855870781e-02    9  2  9  2
 -1.129021560166e-09    9  3  1  1
  6.422963900794e-11    9  3  2  1
 -4.499165875075e-11    9  3  2  2
 -6.601953186398e-04    9  3  3  1
  7.490684061524e-03    9  3  3  2
 -5.208286977418e-11    9  3  3  3
 -2.813005409761e-10    9  3  4  1
 -2.543606128087e-11    9  3  4  2
  1.035889695946e-03    9  3  4  3
 -4.668315192755e-11    9  3  4  4
  3.086860442127e-03    9  3  5  1
 -2.498097802229e-06    9  3  5  2
  4.363168165938e-10    9  3  5  3
  3.770760520087e-05    9  3  5  4
 -3.498147871834e-12    9  3  5  5
 -2.089691083801e-09    9  3  6  1
  1.173535794122e-10    9  3  6  2
 -3.667012154963e-03    9  3  6  3
 -3.190021199691e-10    9  3  6  4
 -1.821278760097e-03    9  3  6  5
 -4.622837963854e-09    9  3  6  6
  2.918882764774e-10    9  3  7  1
 -1.738324434587e-12    9  3  7  2
  3.175305783054e-03    9  3  7  3
  3.699969027211e-11    9  3  7  4
 -1.118933646863e-05    9  3  7  5
  5.586026547918e-10    9  3  7  6
 -4.409374525433e-11    9  3  7  7
  8.546094682005e-05    9  3  8  1
 -1.272107082598e-03    9  3  8  2
 -1.038486493741e-12    9  3  8  3
 -4.748064840403e-04    9  3  8  4
 -6.858847610685e-11    9  3  8  5
  4.372656469183e-04    9  3  8  6
 -2.020512131138e-04    9  3  8  7
 -3.702943210430e-11    9  3  8  8
 -4.308980170652e-10    9  3  9  1
 -4.359250799312e-12    9  3  9  2
  8.378993577206e-03    9  3  9  3
 -3.422122821188e-04    9  4  1  1
  6.993265478556e-03    9  4  2  1
 -1.380702241500e-02    9  4  2  2
 -1.782037839116e-09    9  4  3  1
 -7.612320433902e-12    9  4  3  2
 -5.856459133304e-03    9  4  3  3
  1.960176010822e-03    9  4  4  1
 -2.356708928741e-02    9  4  4  2
 -4.102462368704e-11    9  4  4  3
 -1.717150974703e-02    9  4  4  4
 -4.909655179139e-11    9  4  5  1
 -6.694651760771e-10    9  4  5  2
  6.500581055695e-05    9  4  5  3
 -2.861294102554e-10    9  4  5  4
 -5.155870992162e-04    9  4  5  5
  4.444444304757e-03    9  4  6  1
  6.886381768243e-03    9  4  6  2
 -3.725858565053e-09    9  4  6  3
  7.657545579534e-04    9  4  6  4
 -1.553156082580e-11    9  4  6  5
 -7.331933295801e-03    9  4  6  6
 -7.417071504091e-04    9  4  7  1
  1.136455197776e-02    9  4  7  2
  1.585864623785e-11    9  4  7  3
  3.219351868720e-02    9  4  7  4
  3.453848119654e-10    9  4  7  5
  3.901396142293e-03    9  4  7  6
 -1.840260165387e-02    9  4  7  7
  2.291398495649e-10    9  4  8  1
 -5.852881362765e-12    9  4  8  2
 -3.612472233185e-03    9  4  8  3
  7.425738837323e-12    9  4  8  4
  5.304481343245e-06    9  4  8  5
  4.786671157844e-10    9  4  8  6
 -1.546131581923e-12    9  4  8  7
 -2.559597876830e-02    9  4  8  8
  5.066147922915e-04    9  4  9  1
  6.778376767587e-03    9  4  9  2
 -5.312742750755e-12    9  4  9  3
  1.650481044675e-02    9  4  9  4
  2.696607525784e-09    9  5  1  1
 -1.122737208287e-10    9  5  2  1
 -4.181250019021e-10    9  5  2  2
 -5.345214479462e-03    9  5  3  1
 -6.891621013583e-06    9  5  3  2
 -1.049978465394e-09    9  5  3  3
 -9.488599424886e-11    9  5  4  1
 -6.235162801760e-10    9  5  4  2
 -4.661839918450e-05    9  5  4  3
 -3.030504584952e-10    9  5  4  4
  1.518930336583e-03    9  5  5  1
  1.243619097331e-02    9  5  5  2
  3.295473033875e-12    9  5  5  3
  1.885606312496e-03    9  5  5  4
 -2.312868746565e-09    9  5  5  5
  6.073306694844e-09    9  5  6  1
 -3.892786331067e-10    9  5  6  2
  1.827766544017e-03    9  5  6  3
 -8.400956545756e-11    9  5  6  4
  3.286323219624e-03    9  5  6  5
  1.158006512780e-08    9  5  6  6
 -1.915170387870e-10    9  5  7  1
 -2.682044806341e-11    9  5  7  2
  1.111320144760e-05    9  5  7  3
  3.163392620946e-10    9  5  7  4
  4.333746446177e-03    9  5  7  5
 -2.919860233425e-10    9  5  7  6
 -2.311071486826e-10    9  5  7  7
  5.419279471998e-04    9  5  8  1
  4.428470285043e-06    9  5  8  2
  1.336643368999e-10    9  5  8  3
  5.245712319571e-06    9  5  8  4
  1.530192979490e-11    9  5  8  5
 -6.573941882756e-04    9  5  8  6
 -1.089153352067e-06    9  5  8  7
 -2.781369585907e-10    9  5  8  8
 -6.426328341162e-11    9  5  9  1
 -7.948407023625e-11    9  5  9  2