#INFO: **** input file is /projects/bamu3429/BENCHMARK/fresh_atoms/MRPT/vtz/monoxides/CuO/mrpt.py ****
import json
from pyscf import gto,scf,mcscf, fci, lo, ci, cc
from pyscf.scf import ROHF, UHF,ROKS
import numpy as np
import pandas as pd

# THIS IS WERE IT STARTS ====================================

df=json.load(open("../../../trail.json"))

spins={'ScO':1, 'TiO':2, 'VO':3, 'CrO':4, 'MnO':5, 'FeO':4, 'CuO':1}

nd={'Sc':(1,0), 'Ti':(2,0), 'V':(3,0), 'Cr':(5,0), 'Mn':(5,0), 'Fe':(5,1), 'Cu':(5,4)}

cas={'Sc':3, 'Ti':4, 'V':5, 'Cr':6, 'Mn':7, 'Fe':8, 'Cu':11}

re={'ScO':1.668, 'TiO':1.623, 'VO':1.591, 'CrO':1.621, 'MnO':1.648, 'FeO':1.616, 'CuO':1.725}

datacsv={}
for nm in ['basis','charge','method','molecule','pseudopotential',
           'totalenergy','totalenergy-stocherr','totalenergy-syserr']:
  datacsv[nm]=[]

basis='vtz'
element='Cu'

mol=gto.Mole()
mol.ecp={}
mol.basis={}
for el in [element,'O']:
  mol.ecp[el]=gto.basis.parse_ecp(df[el]['ecp'])
  mol.basis[el]=gto.basis.parse(df[el][basis])
mol.charge=0
mol.spin=spins[element+'O']
mol.build(atom="%s 0. 0. 0.; O 0. 0. %g"%(element,re[element+'O']),verbose=4)

m=ROHF(mol)
m.level_shift=1000.0
dm=m.from_chk("../../../../HF/monoxides/"+element+basis+"0.chk")
hf=m.kernel(dm)
m.analyze()

from pyscf.shciscf import shci
mc = shci.SHCISCF(m, 9, 4+cas[element])
#mc.fcisolver.conv_tol = 1e-14
mc.fcisolver.mpiprefix="mpirun -np 28"
mc.fcisolver.num_thrds=12
mc.verbose = 4
cas=mc.kernel()[0]
 
from pyscf.icmpspt import icmpspt
pt=icmpspt.icmpspt(mc,rdmM=500, PTM=1000,\
                          pttype="MRLCC",\
                          third_order=True,\
                          fully_ic=True,\
                          do_dm4=True)

datacsv['basis'].append(basis)
datacsv['charge'].append(0)
datacsv['method'].append('MRPT')
datacsv['molecule'].append(element)
datacsv['pseudopotential'].append('trail')
datacsv['totalenergy'].append(cas+pt)
datacsv['totalenergy-stocherr'].append(0.0)
datacsv['totalenergy-syserr'].append(0.0)
pd.DataFrame(datacsv).to_csv(element+".csv",index=False)

#INFO: ******************** input file end ********************


System: ('Linux', 'bnode0304.rc.int.colorado.edu', '3.10.0-514.41.1.el7.x86_64', '#1 SMP Wed Jan 17 10:26:16 EST 2018', 'x86_64', 'x86_64')  Threads 28
Python 2.7.11 (default, Mar 22 2016, 01:42:54) 
[GCC Intel(R) C++ gcc 4.8 mode]
numpy 1.11.1  scipy 0.17.1
Date: Thu Mar 29 16:04:46 2018
PySCF version 1.4
PySCF path  /projects/bamu3429/softwares/pyscf_uptodate/pyscf
GIT ORIG_HEAD e2292e6edec2b0e0024c21b81de03db1d7bd4121
GIT HEAD      ref: refs/heads/master
GIT master branch  f3591ef22170896a4cdc2aadaa6f5da388ffcadb

[INPUT] VERBOSE 4
[INPUT] num atoms = 2
[INPUT] num electrons = 25
[INPUT] charge = 0
[INPUT] spin (= nelec alpha-beta = 2S) = 1
[INPUT] symmetry False subgroup None
[INPUT]  1 Cu     0.000000000000   0.000000000000   0.000000000000 AA    0.000000000000   0.000000000000   0.000000000000 Bohr
[INPUT]  2 O      0.000000000000   0.000000000000   1.725000000000 AA    0.000000000000   0.000000000000   3.259777564875 Bohr
[INPUT] ---------------- BASIS SET ---------------- 
[INPUT] l, kappa, [nprim/nctr], expnt,             c_1 c_2 ...
[INPUT] Cu
[INPUT] 0    0    [12   /1   ]  56.69692001       0.003858
                                20.1703448        -1.511163
                                16.89311889       5.262467
                                14.81117613       -4.140408
                                6.02025146        0.066973
                                2.45829434        0.59039
                                1.29773244        0.435
                                0.73258474        0.171005
                                0.2960966         0.014654
                                0.13350445        -0.001059
                                0.05975279        0.002343
                                0.0277617         7.2e-05
[INPUT] 0    0    [12   /1   ]  56.69692001       -0.000329
                                20.1703448        0.271255
                                16.89311889       -0.991333
                                14.81117613       0.80309
                                6.02025146        -0.009798
                                2.45829434        -0.162788
                                1.29773244        -0.157463
                                0.73258474        -0.146178
                                0.2960966         0.068557
                                0.13350445        0.45286
                                0.05975279        0.4989
                                0.0277617         0.13834
[INPUT] 0    0    [12   /1   ]  56.69692001       -0.002467
                                20.1703448        1.109338
                                16.89311889       -4.134563
                                14.81117613       3.441198
                                6.02025146        -0.295299
                                2.45829434        -0.948212
                                1.29773244        0.104998
                                0.73258474        0.272398
                                0.2960966         0.781279
                                0.13350445        0.403482
                                0.05975279        -0.504819
                                0.0277617         -0.537516
[INPUT] 0    0    [12   /1   ]  56.69692001       0.007169
                                20.1703448        -2.290439
                                16.89311889       8.576039
                                14.81117613       -7.236243
                                6.02025146        1.069217
                                2.45829434        1.904655
                                1.29773244        -1.704423
                                0.73258474        -0.959586
                                0.2960966         0.398011
                                0.13350445        1.19757
                                0.05975279        -0.332252
                                0.0277617         -0.640028
[INPUT] 0    0    [1    /1   ]  0.0277617            1
[INPUT] 0    0    [1    /1   ]  0.01289834           1
[INPUT] 1    0    [12   /1   ]  84.11621248       0.00021
                                41.67010486       -0.003354
                                20.84027636       0.054507
                                13.1175259        -0.185677
                                7.96834211        0.1136
                                4.08681185        0.286879
                                2.29416473        0.386568
                                1.21038981        0.304256
                                0.60503887        0.104511
                                0.23373223        0.008916
                                0.0905483         -0.000333
                                0.03498335        0.000208
[INPUT] 1    0    [12   /1   ]  84.11621248       4e-06
                                41.67010486       0.000359
                                20.84027636       -0.009409
                                13.1175259        0.03575
                                7.96834211        -0.025333
                                4.08681185        -0.064167
                                2.29416473        -0.086609
                                1.21038981        -0.086359
                                0.60503887        0.027529
                                0.23373223        0.324015
                                0.0905483         0.541358
                                0.03498335        0.260105
[INPUT] 1    0    [12   /1   ]  84.11621248       -0.000267
                                41.67010486       -6.4e-05
                                20.84027636       0.047925
                                13.1175259        -0.277144
                                7.96834211        0.331958
                                4.08681185        0.774366
                                2.29416473        -0.100864
                                1.21038981        -0.807332
                                0.60503887        -0.321021
                                0.23373223        0.668842
                                0.0905483         0.367628
                                0.03498335        -0.000935
[INPUT] 1    0    [12   /1   ]  84.11621248       5.7e-05
                                41.67010486       -0.001547
                                20.84027636       0.089243
                                13.1175259        -0.63532
                                7.96834211        1.278388
                                4.08681185        0.622329
                                2.29416473        -1.509876
                                1.21038981        -0.580496
                                0.60503887        1.497693
                                0.23373223        -0.085087
                                0.0905483         -0.662473
                                0.03498335        0.018623
[INPUT] 1    0    [1    /1   ]  0.03498335           1
[INPUT] 1    0    [1    /1   ]  0.01351582           1
[INPUT] 2    0    [10   /1   ]  85.06963135       0.000306
                                37.22826442       -0.00619
                                15.61164981       0.135912
                                9.50636668        0.057336
                                5.30208049        0.240495
                                2.49612499        0.317037
                                1.13949453        0.29791
                                0.51100337        0.208077
                                0.230497          0.090388
                                0.11275594        0.026692
[INPUT] 2    0    [10   /1   ]  85.06963135       -6.7e-05
                                37.22826442       0.005894
                                15.61164981       -0.160149
                                9.50636668        -0.06449
                                5.30208049        -0.378253
                                2.49612499        -0.223915
                                1.13949453        0.192556
                                0.51100337        0.40631
                                0.230497          0.288029
                                0.11275594        0.137167
[INPUT] 2    0    [10   /1   ]  85.06963135       0.000676
                                37.22826442       0.002685
                                15.61164981       -0.164508
                                9.50636668        -0.124255
                                5.30208049        -0.491432
                                2.49612499        0.308336
                                1.13949453        0.656459
                                0.51100337        -0.049831
                                0.230497          -0.426374
                                0.11275594        -0.340335
[INPUT] 2    0    [1    /1   ]  0.11275594           1
[INPUT] 2    0    [1    /1   ]  0.05515864           1
[INPUT] 3    0    [1    /1   ]  5.302569             1
[INPUT] 3    0    [1    /1   ]  1.403579             1
[INPUT] 3    0    [1    /1   ]  0.37152444           1
[INPUT] 4    0    [1    /1   ]  4.659861             1
[INPUT] 4    0    [1    /1   ]  1.23345551           1
[INPUT] O
[INPUT] 0    0    [10   /1   ]  57.663349         -0.002794
                                35.726816         0.023976
                                22.453757         -0.115974
                                14.732301         0.288033
                                9.739917          -0.274786
                                5.042008          -0.083789
                                2.157818          0.063778
                                1.002916          0.410182
                                0.421839          0.504044
                                0.173041          0.172152
[INPUT] 0    0    [1    /1   ]  1.849096             1
[INPUT] 0    0    [1    /1   ]  0.255434             1
[INPUT] 0    0    [1    /1   ]  0.141483             1
[INPUT] 1    0    [10   /1   ]  52.47406          -0.000522
                                32.138432         0.004857
                                19.458579         -0.027749
                                11.839344         0.074258
                                7.91003           0.014369
                                3.670858          0.153479
                                1.53966           0.283685
                                0.647119          0.358201
                                0.267853          0.29559
                                0.107198          0.104889
[INPUT] 1    0    [1    /1   ]  0.622175             1
[INPUT] 1    0    [1    /1   ]  0.193391             1
[INPUT] 1    0    [1    /1   ]  0.052779             1
[INPUT] 2    0    [1    /1   ]  2.324251             1
[INPUT] 2    0    [1    /1   ]  0.656935             1
[INPUT] 2    0    [1    /1   ]  0.2072               1
[INPUT] 3    0    [1    /1   ]  1.423472             1
[INPUT] 3    0    [1    /1   ]  0.48761              1
nuclear repulsion = 34.9717113303652
number of shells = 35
number of NR pGTOs = 480
number of NR cGTOs = 133
basis = {'O': [[0, [57.663349, -0.002794], [35.726816, 0.023976], [22.453757, -0.115974], [14.732301, 0.288033], [9.739917, -0.274786], [5.042008, -0.083789], [2.157818, 0.063778], [1.002916, 0.410182], [0.421839, 0.504044], [0.173041, 0.172152]], [0, [1.849096, 1.0]], [0, [0.255434, 1.0]], [0, [0.141483, 1.0]], [1, [52.47406, -0.000522], [32.138432, 0.004857], [19.458579, -0.027749], [11.839344, 0.074258], [7.91003, 0.014369], [3.670858, 0.153479], [1.53966, 0.283685], [0.647119, 0.358201], [0.267853, 0.29559], [0.107198, 0.104889]], [1, [0.622175, 1.0]], [1, [0.193391, 1.0]], [1, [0.052779, 1.0]], [2, [2.324251, 1.0]], [2, [0.656935, 1.0]], [2, [0.2072, 1.0]], [3, [1.423472, 1.0]], [3, [0.48761, 1.0]]], 'Cu': [[0, [56.69692001, 0.003858], [20.1703448, -1.511163], [16.89311889, 5.262467], [14.81117613, -4.140408], [6.02025146, 0.066973], [2.45829434, 0.59039], [1.29773244, 0.435], [0.73258474, 0.171005], [0.2960966, 0.014654], [0.13350445, -0.001059], [0.05975279, 0.002343], [0.0277617, 7.2e-05]], [0, [56.69692001, -0.000329], [20.1703448, 0.271255], [16.89311889, -0.991333], [14.81117613, 0.80309], [6.02025146, -0.009798], [2.45829434, -0.162788], [1.29773244, -0.157463], [0.73258474, -0.146178], [0.2960966, 0.068557], [0.13350445, 0.45286], [0.05975279, 0.4989], [0.0277617, 0.13834]], [0, [56.69692001, -0.002467], [20.1703448, 1.109338], [16.89311889, -4.134563], [14.81117613, 3.441198], [6.02025146, -0.295299], [2.45829434, -0.948212], [1.29773244, 0.104998], [0.73258474, 0.272398], [0.2960966, 0.781279], [0.13350445, 0.403482], [0.05975279, -0.504819], [0.0277617, -0.537516]], [0, [56.69692001, 0.007169], [20.1703448, -2.290439], [16.89311889, 8.576039], [14.81117613, -7.236243], [6.02025146, 1.069217], [2.45829434, 1.904655], [1.29773244, -1.704423], [0.73258474, -0.959586], [0.2960966, 0.398011], [0.13350445, 1.19757], [0.05975279, -0.332252], [0.0277617, -0.640028]], [0, [0.0277617, 1.0]], [0, [0.01289834, 1.0]], [1, [84.11621248, 0.00021], [41.67010486, -0.003354], [20.84027636, 0.054507], [13.1175259, -0.185677], [7.96834211, 0.1136], [4.08681185, 0.286879], [2.29416473, 0.386568], [1.21038981, 0.304256], [0.60503887, 0.104511], [0.23373223, 0.008916], [0.0905483, -0.000333], [0.03498335, 0.000208]], [1, [84.11621248, 4e-06], [41.67010486, 0.000359], [20.84027636, -0.009409], [13.1175259, 0.03575], [7.96834211, -0.025333], [4.08681185, -0.064167], [2.29416473, -0.086609], [1.21038981, -0.086359], [0.60503887, 0.027529], [0.23373223, 0.324015], [0.0905483, 0.541358], [0.03498335, 0.260105]], [1, [84.11621248, -0.000267], [41.67010486, -6.4e-05], [20.84027636, 0.047925], [13.1175259, -0.277144], [7.96834211, 0.331958], [4.08681185, 0.774366], [2.29416473, -0.100864], [1.21038981, -0.807332], [0.60503887, -0.321021], [0.23373223, 0.668842], [0.0905483, 0.367628], [0.03498335, -0.000935]], [1, [84.11621248, 5.7e-05], [41.67010486, -0.001547], [20.84027636, 0.089243], [13.1175259, -0.63532], [7.96834211, 1.278388], [4.08681185, 0.622329], [2.29416473, -1.509876], [1.21038981, -0.580496], [0.60503887, 1.497693], [0.23373223, -0.085087], [0.0905483, -0.662473], [0.03498335, 0.018623]], [1, [0.03498335, 1.0]], [1, [0.01351582, 1.0]], [2, [85.06963135, 0.000306], [37.22826442, -0.00619], [15.61164981, 0.135912], [9.50636668, 0.057336], [5.30208049, 0.240495], [2.49612499, 0.317037], [1.13949453, 0.29791], [0.51100337, 0.208077], [0.230497, 0.090388], [0.11275594, 0.026692]], [2, [85.06963135, -6.7e-05], [37.22826442, 0.005894], [15.61164981, -0.160149], [9.50636668, -0.06449], [5.30208049, -0.378253], [2.49612499, -0.223915], [1.13949453, 0.192556], [0.51100337, 0.40631], [0.230497, 0.288029], [0.11275594, 0.137167]], [2, [85.06963135, 0.000676], [37.22826442, 0.002685], [15.61164981, -0.164508], [9.50636668, -0.124255], [5.30208049, -0.491432], [2.49612499, 0.308336], [1.13949453, 0.656459], [0.51100337, -0.049831], [0.230497, -0.426374], [0.11275594, -0.340335]], [2, [0.11275594, 1.0]], [2, [0.05515864, 1.0]], [3, [5.302569, 1.0]], [3, [1.403579, 1.0]], [3, [0.37152444, 1.0]], [4, [4.659861, 1.0]], [4, [1.23345551, 1.0]]]}
ecp = {'O': [2, [[-1, [[], [[10.27717748, 6.0]], [[15.99566749, 1232.50197768], [10.46901775, -696.47008301], [14.6384801, -2654.22657081], [12.57591181, 2101.67732548]], [[7.77739102, 61.66306486]]]], [0, [[], [], [[12.39426073, -656683.37638839], [12.38126171, 657858.57667068], [8.57671033, 511.50098405], [9.89256508, -2579.54665641], [28.05641604, -57.68129584], [17.24753607, 970.30940152]], []]], [1, [[], [], [[14.78918914, -363027.24258186], [14.82014018, 361852.52314043], [22.89622221, -1300.20069256], [8.51331893, -181.96869573], [11.48609758, 2194.87589959], [27.22017524, 451.19906206]], []]]]], 'Cu': [10, [[-1, [[], [[19.87662576, 19.0]], [[18.71397328, 13322.8315411], [8.24597653, -143.81933419], [17.99726398, -6835.89401414], [19.50653533, -6413.73731394]], [[9.35936389, 377.6558895]]]], [0, [[], [], [[12.04327682, 217421.85846016], [11.98352277, -215987.47192743], [9.67744501, 1647.53099822], [17.5806873, -5124.79596488], [17.5092588, -963.5691239], [19.80724162, 3071.81011765]], []]], [1, [[], [], [[15.48559732, 189560.54470794], [15.42430413, -181115.65838446], [17.81980355, -1937.67548293], [17.69074392, -2335.92086442], [17.98867265, -8634.52846732], [19.82460345, 4504.58524733]], []]], [2, [[], [], [[10.91448054, -5224.34215851], [14.69969344, -3653.65459704], [11.52370333, 8159.25189768], [19.81153965, -2763.94279097], [18.0197982, 6020.80732635], [14.46480052, -2560.14492979]], []]]]]}
CPU time:         3.62


******** <class 'pyscf.scf.rohf.ROHF'> flags ********
method = ROHF
initial guess = minao
damping factor = 0
level shift factor = 1000.0
DIIS = <class 'pyscf.scf.diis.CDIIS'>
DIIS start cycle = 1
DIIS space = 8
SCF tol = 1e-09
SCF gradient tol = None
max. SCF cycles = 50
direct_scf = True
direct_scf_tol = 1e-13
chkfile to save SCF result = /projects/bamu3429/BENCHMARK/fresh_atoms/MRPT/vtz/monoxides/CuO/tmpntLMOX
max_memory 4000 MB (current use 106 MB)
num. doubly occ = 12  num. singly occ = 1
Set gradient conv threshold to 3.16228e-05
init E= -212.240182525617
  HOMO = 499.857479999682  LUMO = 999.987790488466
cycle= 1 E= -212.240182525616  delta_E= 1.42e-13  |g|= 5.86e-06  |ddm|= 1.94e-08
  HOMO = -0.142519999849452  LUMO = -0.0122095114226105
Extra cycle  E= -212.240182525624  delta_E= -7.36e-12  |g|= 1.52e-06  |ddm|= 5.89e-06
converged SCF energy = -212.240182525624
**** MO energy ****
                Roothaan           | alpha              | beta
MO #1   energy= -5.27184831099816  | -5.27299839927871  | -5.27069822271759  occ= 2
MO #2   energy= -3.54236326119607  | -3.54418691198651  | -3.54053961040562  occ= 2
MO #3   energy= -3.53881133375692  | -3.54082633329424  | -3.53679633412071  occ= 2
MO #4   energy= -3.53789589796     | -3.53817743667818  | -3.53761435924182  occ= 2
MO #5   energy= -1.15340527675044  | -1.2283349228358   | -1.07847563066508  occ= 2
MO #6   energy= -0.544081732449848 | -0.547101962539478 | -0.541061502360222 occ= 2
MO #7   energy= -0.53432817654235  | -0.542864077214778 | -0.525792275869924 occ= 2
MO #8   energy= -0.526903467122376 | -0.536639498268754 | -0.517167410128711 occ= 2
MO #9   energy= -0.519976897636985 | -0.520506922000583 | -0.519446873273385 occ= 2
MO #10  energy= -0.519973943487601 | -0.520490665568281 | -0.519457221406915 occ= 2
MO #11  energy= -0.402730321615315 | -0.417816684802938 | -0.387643958427696 occ= 2
MO #12  energy= -0.393206823201827 | -0.403368078938233 | -0.383045567465417 occ= 2
MO #13  energy= -0.142519999849452 | -0.519662215742997 | 0.234622642510331  occ= 1
MO #14  energy= -0.0122095114226105 | -0.0127812515693042 | -0.0116377712759172 occ= 0
MO #15  energy= 0.0256273700314229 | 0.025164119194676  | 0.0260906240423048 occ= 0
MO #16  energy= 0.0264865322594209 | 0.0264191418830655 | 0.0265539226357735 occ= 0
MO #17  energy= 0.0350879128106106 | 0.0346595691200791 | 0.0355162565011396 occ= 0
MO #18  energy= 0.039592557796131  | 0.0395107305725769 | 0.0396743850196833 occ= 0
MO #19  energy= 0.0899525958183236 | 0.0881395488429186 | 0.0917656367873621 occ= 0
MO #20  energy= 0.0913127760974157 | 0.0910601139235239 | 0.0915654382713122 occ= 0
MO #21  energy= 0.125155772895643  | 0.124294339953071  | 0.126017205838214  occ= 0
MO #22  energy= 0.156402882793492  | 0.156198175873587  | 0.156607589713398  occ= 0
MO #23  energy= 0.156464130010679  | 0.156262443808096  | 0.156665816213261  occ= 0
MO #24  energy= 0.178759132495508  | 0.175302715374534  | 0.182215470018186  occ= 0
MO #25  energy= 0.181665254770561  | 0.181198751045972  | 0.182131758495155  occ= 0
MO #26  energy= 0.189590063439937  | 0.188848389463522  | 0.190331737416345  occ= 0
MO #27  energy= 0.192033559088379  | 0.190926332896885  | 0.193140785279872  occ= 0
MO #28  energy= 0.227191391398426  | 0.224213805372078  | 0.230168936958163  occ= 0
MO #29  energy= 0.229553686742233  | 0.22916059357132   | 0.229946779913149  occ= 0
MO #30  energy= 0.266974194594269  | 0.266567632575207  | 0.267380756613333  occ= 0
MO #31  energy= 0.334472932469268  | 0.331461606845314  | 0.337484235242778  occ= 0
MO #32  energy= 0.336408521763714  | 0.336043441655367  | 0.336773601872057  occ= 0
MO #33  energy= 0.398535518156913  | 0.396010212267141  | 0.401060824046684  occ= 0
MO #34  energy= 0.488559826433174  | 0.487763582668563  | 0.489356070197789  occ= 0
MO #35  energy= 0.488610613588642  | 0.487793179148714  | 0.489428048028574  occ= 0
MO #36  energy= 0.521675125386848  | 0.514695919669488  | 0.528654220122595  occ= 0
MO #37  energy= 0.523884410641204  | 0.523027027843474  | 0.524741793438938  occ= 0
MO #38  energy= 0.629633720489357  | 0.622823900728252  | 0.636443540250473  occ= 0
MO #39  energy= 0.734791573535339  | 0.72517237843479   | 0.744410768635889  occ= 0
MO #40  energy= 0.735170508544998  | 0.725155021603781  | 0.745185995486222  occ= 0
MO #41  energy= 0.829043339303894  | 0.82498849255939   | 0.833098186048398  occ= 0
MO #42  energy= 0.85386861810987   | 0.837394480449825  | 0.870342719195206  occ= 0
MO #43  energy= 0.860166733710816  | 0.857990951090752  | 0.862342516330879  occ= 0
MO #44  energy= 0.873564080588727  | 0.869197266905365  | 0.877930894272089  occ= 0
MO #45  energy= 1.01208479994586   | 1.01035886345969   | 1.01381073643203   occ= 0
MO #46  energy= 1.06681090663312   | 1.03144669401571   | 1.10217499706132   occ= 0
MO #47  energy= 1.07333163999905   | 1.06883468259588   | 1.07782859740222   occ= 0
MO #48  energy= 1.38455943867235   | 1.38403814359686   | 1.38508073368223   occ= 0
MO #49  energy= 1.3845609406711    | 1.38403785203548   | 1.38508402930671   occ= 0
MO #50  energy= 1.46982884915592   | 1.46837695261276   | 1.47128074569909   occ= 0
MO #51  energy= 1.46986625061831   | 1.46838362029865   | 1.47134888093797   occ= 0
MO #52  energy= 1.59331239360149   | 1.59195885242444   | 1.59466593420527   occ= 0
MO #53  energy= 1.59534709170917   | 1.59516872403637   | 1.59552545938197   occ= 0
MO #54  energy= 1.60355723751993   | 1.60323394107843   | 1.60388053396144   occ= 0
MO #55  energy= 1.80350743310896   | 1.80241084982582   | 1.80460401639208   occ= 0
MO #56  energy= 1.80351865274982   | 1.80247273899222   | 1.80456456650743   occ= 0
MO #57  energy= 1.84564242708944   | 1.83439412898926   | 1.85689071742126   occ= 0
MO #58  energy= 1.8556634798676    | 1.8539122924816    | 1.8574146672536    occ= 0
MO #59  energy= 1.99079074613802   | 1.98487058809063   | 1.9967109041854    occ= 0
MO #60  energy= 2.09963907497637   | 2.08974549520026   | 2.10953265283304   occ= 0
MO #61  energy= 2.09967403613499   | 2.08972438532741   | 2.10962368694256   occ= 0
MO #62  energy= 2.113163729421     | 2.10296658411109   | 2.12336087473092   occ= 0
MO #63  energy= 2.2544484427245    | 2.21814618591581   | 2.29075069953321   occ= 0
MO #64  energy= 2.25822561229846   | 2.22412729234985   | 2.29232393224707   occ= 0
MO #65  energy= 2.29830107596764   | 2.28062353253614   | 2.3159786193992    occ= 0
MO #66  energy= 2.37539280185828   | 2.36832846824962   | 2.38245713546695   occ= 0
MO #67  energy= 2.3758732460183    | 2.36882948948986   | 2.38291700254675   occ= 0
MO #68  energy= 2.39631520514267   | 2.37136159200488   | 2.42126881030521   occ= 0
MO #69  energy= 2.41050779708277   | 2.40675434326312   | 2.41426125090243   occ= 0
MO #70  energy= 2.60297023689846   | 2.59880537932336   | 2.60713509435019   occ= 0
MO #71  energy= 2.60866208289429   | 2.60791193082369   | 2.60941223496488   occ= 0
MO #72  energy= 2.75886310123486   | 2.7511639586632    | 2.76656224380652   occ= 0
MO #73  energy= 3.11947232783179   | 3.11228897990317   | 3.12665567608431   occ= 0
MO #74  energy= 3.13216154632274   | 3.13070205023623   | 3.13362104240926   occ= 0
MO #75  energy= 3.74153194437516   | 3.73803754063751   | 3.74502634811279   occ= 0
MO #76  energy= 3.8315494333435    | 3.76726941420769   | 3.89582943626548   occ= 0
MO #77  energy= 3.84495312908439   | 3.83621366643144   | 3.85369259173731   occ= 0
MO #78  energy= 4.30638876487823   | 4.29944560405826   | 4.31333192569819   occ= 0
MO #79  energy= 4.79168726034652   | 4.7915141667383    | 4.79186035395598   occ= 0
MO #80  energy= 4.79168732320988   | 4.79151417388425   | 4.7918604725355    occ= 0
MO #81  energy= 4.83808256539122   | 4.83737251067489   | 4.83879262010755   occ= 0
MO #82  energy= 4.83808294029329   | 4.8373683582152    | 4.83879752237139   occ= 0
MO #83  energy= 4.92340905599495   | 4.92204733250503   | 4.92477077950314   occ= 0
MO #84  energy= 4.92593609607305   | 4.92575345790798   | 4.92611873423813   occ= 0
MO #85  energy= 5.00012295140928   | 4.99765883352199   | 5.00258706929657   occ= 0
MO #86  energy= 5.73931167724275   | 5.73923422312544   | 5.73938913136003   occ= 0
MO #87  energy= 5.7393116772551    | 5.73923422324522   | 5.73938913126499   occ= 0
MO #88  energy= 5.74001685764278   | 5.73964950754223   | 5.74038420771979   occ= 0
MO #89  energy= 5.74001726843322   | 5.73964924117563   | 5.74038529569081   occ= 0
MO #90  energy= 5.82141909215462   | 5.82038884223807   | 5.82244934207116   occ= 0
MO #91  energy= 5.82142059943404   | 5.82040933414144   | 5.82243186472664   occ= 0
MO #92  energy= 5.86931167198871   | 5.86396623638234   | 5.87465710731441   occ= 0
MO #93  energy= 5.8761011082377    | 5.87512388604047   | 5.8770783304349    occ= 0
MO #94  energy= 5.87808740187285   | 5.87732887085134   | 5.87884593289438   occ= 0
MO #95  energy= 5.90647114123677   | 5.90275775431666   | 5.91018452815687   occ= 0
MO #96  energy= 6.49349394984032   | 6.46937835906347   | 6.51760953884626   occ= 0
MO #97  energy= 6.49358236075566   | 6.46944523641208   | 6.51771948509925   occ= 0
MO #98  energy= 6.58467412672056   | 6.5673391841013    | 6.60200906933983   occ= 0
MO #99  energy= 6.5858108927738    | 6.56981978399711   | 6.60180200155049   occ= 0
MO #100 energy= 6.72605429086409   | 6.70665653141441   | 6.74545205001624   occ= 0
MO #101 energy= 6.75367662467609   | 6.74620984332689   | 6.76114340602528   occ= 0
MO #102 energy= 6.75631821236883   | 6.75232685176518   | 6.76030957297249   occ= 0
MO #103 energy= 6.98811881866628   | 6.98288096107523   | 6.99335667625735   occ= 0
MO #104 energy= 6.98815396112928   | 6.98311264212341   | 6.99319528013515   occ= 0
MO #105 energy= 7.08713264146425   | 7.0513430330795    | 7.122922249849     occ= 0
MO #106 energy= 7.08738975185764   | 7.0525032991329    | 7.12227620458237   occ= 0
MO #107 energy= 7.17506131816121   | 7.14864256378742   | 7.20148007229103   occ= 0
MO #108 energy= 7.19462484310402   | 7.1903110879518    | 7.19893859825624   occ= 0
MO #109 energy= 7.50451524898388   | 7.49247711075341   | 7.51655338721435   occ= 0
MO #110 energy= 7.64432581548449   | 7.63370042536907   | 7.65495120556202   occ= 0
MO #111 energy= 7.65462502708867   | 7.65273383297272   | 7.6565162212046    occ= 0
MO #112 energy= 8.10890693105762   | 8.10702735971695   | 8.11078650239832   occ= 0
MO #113 energy= 10.8804433915945   | 10.8793979558893   | 10.8814888273092   occ= 0
MO #114 energy= 10.8839241559612   | 10.883707020346    | 10.8841412915765   occ= 0
MO #115 energy= 11.2621155008627   | 11.2601942418079   | 11.2640367599176   occ= 0
MO #116 energy= 12.5869750769187   | 12.5787029992932   | 12.5952471545442   occ= 0
MO #117 energy= 13.3504178767895   | 13.3396676062006   | 13.3611681473785   occ= 0
MO #118 energy= 15.3018963791201   | 15.3016068563101   | 15.3021859019301   occ= 0
MO #119 energy= 15.3018964178233   | 15.3016069266075   | 15.3021859090391   occ= 0
MO #120 energy= 15.3300687855446   | 15.3289263373205   | 15.3312112337688   occ= 0
MO #121 energy= 15.3300715029145   | 15.3289350106926   | 15.3312079951364   occ= 0
MO #122 energy= 15.3854343242598   | 15.3838928032618   | 15.3869758452794   occ= 0
MO #123 energy= 15.3866911171844   | 15.3864925577628   | 15.3868896766059   occ= 0
MO #124 energy= 15.4878307138775   | 15.4870535795023   | 15.4886078482525   occ= 0
MO #125 energy= 20.2923805627488   | 20.2922054776811   | 20.2925556478165   occ= 0
MO #126 energy= 20.292380563871    | 20.2922054791268   | 20.2925556486151   occ= 0
MO #127 energy= 20.2961250681112   | 20.2955173332321   | 20.2967328029897   occ= 0
MO #128 energy= 20.2961251453858   | 20.2955174607486   | 20.2967328300229   occ= 0
MO #129 energy= 20.3223603381049   | 20.3217361080639   | 20.3229845681459   occ= 0
MO #130 energy= 20.3223713795349   | 20.3217541550246   | 20.3229886040452   occ= 0
MO #131 energy= 20.3991237020706   | 20.3982615098844   | 20.3999858942568   occ= 0
MO #132 energy= 20.4012222287319   | 20.4010546374976   | 20.4013898199662   occ= 0
MO #133 energy= 20.4611837689986   | 20.4607374980518   | 20.4616300399454   occ= 0
 ** Mulliken pop on meta-lowdin orthogonal AOs  **
 ** Mulliken pop  **
pop of  0Cu 3s        1.99998
pop of  0Cu 4s        0.33523
pop of  0Cu 5s        0.00396
pop of  0Cu 6s        0.00047
pop of  0Cu 7s        0.00170
pop of  0Cu 8s        0.00065
pop of  0Cu 3px       1.99994
pop of  0Cu 3py       1.99995
pop of  0Cu 3pz       1.99989
pop of  0Cu 4px       0.00333
pop of  0Cu 4py       0.01474
pop of  0Cu 4pz       0.00854
pop of  0Cu 5px       0.00033
pop of  0Cu 5py       0.00179
pop of  0Cu 5pz       0.00036
pop of  0Cu 6px       0.00002
pop of  0Cu 6py       0.00016
pop of  0Cu 6pz       0.00022
pop of  0Cu 7px       0.00018
pop of  0Cu 7py       0.00159
pop of  0Cu 7pz       0.00028
pop of  0Cu 8px       0.00002
pop of  0Cu 8py       0.00020
pop of  0Cu 8pz       0.00005
pop of  0Cu 3dxy      1.99859
pop of  0Cu 3dyz      1.99188
pop of  0Cu 3dz^2     1.89078
pop of  0Cu 3dxz      1.98548
pop of  0Cu 3dx2-y2    1.99859
pop of  0Cu 4dxy      0.00078
pop of  0Cu 4dyz      0.00092
pop of  0Cu 4dz^2     0.00230
pop of  0Cu 4dxz      0.00098
pop of  0Cu 4dx2-y2    0.00078
pop of  0Cu 5dxy      0.00009
pop of  0Cu 5dyz      0.00014
pop of  0Cu 5dz^2     0.00078
pop of  0Cu 5dxz      0.00009
pop of  0Cu 5dx2-y2    0.00009
pop of  0Cu 6dxy      0.00030
pop of  0Cu 6dyz      0.00045
pop of  0Cu 6dz^2     0.00158
pop of  0Cu 6dxz      0.00024
pop of  0Cu 6dx2-y2    0.00030
pop of  0Cu 7dxy      0.00005
pop of  0Cu 7dyz      0.00035
pop of  0Cu 7dz^2     0.00096
pop of  0Cu 7dxz      0.00002
pop of  0Cu 7dx2-y2    0.00005
pop of  0Cu 4fy^3     0.00000
pop of  0Cu 4fxyz     0.00000
pop of  0Cu 4fyz^2    0.00001
pop of  0Cu 4fz^3     0.00001
pop of  0Cu 4fxz^2    0.00001
pop of  0Cu 4fzx^2    0.00000
pop of  0Cu 4fx^3     0.00000
pop of  0Cu 5fy^3     0.00000
pop of  0Cu 5fxyz     0.00004
pop of  0Cu 5fyz^2    0.00011
pop of  0Cu 5fz^3     0.00016
pop of  0Cu 5fxz^2    0.00007
pop of  0Cu 5fzx^2    0.00004
pop of  0Cu 5fx^3     0.00000
pop of  0Cu 6fy^3     0.00000
pop of  0Cu 6fxyz     0.00011
pop of  0Cu 6fyz^2    0.00036
pop of  0Cu 6fz^3     0.00007
pop of  0Cu 6fxz^2    0.00017
pop of  0Cu 6fzx^2    0.00012
pop of  0Cu 6fx^3     0.00000
pop of  0Cu 5g-4      0.00000
pop of  0Cu 5g-3      0.00000
pop of  0Cu 5g-2      0.00000
pop of  0Cu 5g-1      0.00000
pop of  0Cu 5g 0      0.00000
pop of  0Cu 5g 1      0.00000
pop of  0Cu 5g 2      0.00000
pop of  0Cu 5g 3      0.00000
pop of  0Cu 5g 4      0.00000
pop of  0Cu 6g-4      0.00000
pop of  0Cu 6g-3      0.00000
pop of  0Cu 6g-2      0.00000
pop of  0Cu 6g-1      0.00001
pop of  0Cu 6g 0      0.00002
pop of  0Cu 6g 1      0.00001
pop of  0Cu 6g 2      0.00000
pop of  0Cu 6g 3      0.00000
pop of  0Cu 6g 4      0.00000
pop of  1O 2s        1.92284
pop of  1O 3s        0.00033
pop of  1O 4s        0.00041
pop of  1O 5s        0.00068
pop of  1O 2px       1.04298
pop of  1O 2py       1.93649
pop of  1O 2pz       1.81573
pop of  1O 3px       0.00001
pop of  1O 3py       0.00001
pop of  1O 3pz       0.00012
pop of  1O 4px       0.00067
pop of  1O 4py       0.00589
pop of  1O 4pz       0.00665
pop of  1O 5px       0.00042
pop of  1O 5py       0.00450
pop of  1O 5pz       0.00105
pop of  1O 3dxy      0.00000
pop of  1O 3dyz      0.00012
pop of  1O 3dz^2     0.00026
pop of  1O 3dxz      0.00009
pop of  1O 3dx2-y2    0.00000
pop of  1O 4dxy      0.00001
pop of  1O 4dyz      0.00098
pop of  1O 4dz^2     0.00245
pop of  1O 4dxz      0.00061
pop of  1O 4dx2-y2    0.00002
pop of  1O 5dxy      0.00001
pop of  1O 5dyz      0.00226
pop of  1O 5dz^2     0.00138
pop of  1O 5dxz      0.00097
pop of  1O 5dx2-y2    0.00003
pop of  1O 4fy^3     0.00002
pop of  1O 4fxyz     0.00000
pop of  1O 4fyz^2    0.00002
pop of  1O 4fz^3     0.00004
pop of  1O 4fxz^2    0.00001
pop of  1O 4fzx^2    0.00001
pop of  1O 4fx^3     0.00003
pop of  1O 5fy^3     0.00003
pop of  1O 5fxyz     0.00001
pop of  1O 5fyz^2    0.00023
pop of  1O 5fz^3     0.00004
pop of  1O 5fxz^2    0.00005
pop of  1O 5fzx^2    0.00002
pop of  1O 5fx^3     0.00004
 ** Mulliken atomic charges  **
charge of  0Cu =      0.74851
charge of  1O =     -0.74851

******** <class 'pyscf.mcscf.mc1step.CASSCF'> flags ********
CAS (8e+7e, 9o), ncore = 5, nvir = 119
max_cycle_macro = 50
max_cycle_micro = 4
conv_tol = 1e-07
conv_tol_grad = None
orbital rotation max_stepsize = 0.02
augmented hessian ah_max_cycle = 30
augmented hessian ah_conv_tol = 1e-12
augmented hessian ah_linear dependence = 1e-14
augmented hessian ah_level shift = 0
augmented hessian ah_start_tol = 2.5
augmented hessian ah_start_cycle = 3
augmented hessian ah_grad_trust_region = 3
kf_trust_region = 3
kf_interval = 4
ci_response_space = 4
ci_grad_trust_region = 3
with_dep4 0
natorb = False
canonicalization = True
chkfile = ./scratch/183086/tmptTClnp
max_memory 4000 MB (current use 525 MB)
internal_rotation = False

******** SHCI flags ********
executable             = /home/bamu3429/softwares/dice/Dice
mpiprefix              = mpirun -np 28
scratchDirectory       = ./scratch/183086
integralFile           = ./FCIDUMP
configFile             = ./input.dat
outputFile             = ./output.dat
maxIter                = 6
sweep_iter             = []
sweep_epsilon          = []
nPTiter                = 0
Stochastic             = True
fullrestart            = False
restart                = False
num_thrds              = 12
memory                 = None

CASCI E = -212.240826582837  S^2 = 0.7500000
Set conv_tol_grad to 0.000316228
macro iter 1 (21 JK  4 micro), CASSCF E = -212.251288886375  dE = -0.010462304  S^2 = 0.7500000
               |grad[o]|=0.00748  |grad[c]|= None  |ddm|=0.0841
macro iter 2 (21 JK  4 micro), CASSCF E = -212.260567234294  dE = -0.0092783479  S^2 = 0.7500000
               |grad[o]|=0.0757  |grad[c]|= None  |ddm|=0.056
macro iter 3 (20 JK  4 micro), CASSCF E = -212.262840187946  dE = -0.0022729537  S^2 = 0.7500000
               |grad[o]|=0.073  |grad[c]|= None  |ddm|=0.0631
macro iter 4 (19 JK  4 micro), CASSCF E = -212.264490329961  dE = -0.001650142  S^2 = 0.7500000
               |grad[o]|=0.055  |grad[c]|= None  |ddm|=0.0735
macro iter 5 (21 JK  4 micro), CASSCF E = -212.265476416992  dE = -0.00098608703  S^2 = 0.7500000
               |grad[o]|=0.0539  |grad[c]|= None  |ddm|=0.0459
macro iter 6 (20 JK  4 micro), CASSCF E = -212.266352989757  dE = -0.00087657277  S^2 = 0.7500000
               |grad[o]|=0.0494  |grad[c]|= None  |ddm|=0.0489
macro iter 7 (21 JK  4 micro), CASSCF E = -212.26684496902  dE = -0.00049197926  S^2 = 0.7500000
               |grad[o]|=0.0427  |grad[c]|= None  |ddm|=0.0337
macro iter 8 (21 JK  4 micro), CASSCF E = -212.267279775069  dE = -0.00043480605  S^2 = 0.7500000
               |grad[o]|=0.0361  |grad[c]|= None  |ddm|=0.029
macro iter 9 (20 JK  4 micro), CASSCF E = -212.267703731259  dE = -0.00042395619  S^2 = 0.7500000
               |grad[o]|=0.0344  |grad[c]|= None  |ddm|=0.0276
macro iter 10 (21 JK  4 micro), CASSCF E = -212.26798428774  dE = -0.00028055648  S^2 = 0.7500000
               |grad[o]|=0.0301  |grad[c]|= None  |ddm|=0.0179
macro iter 11 (21 JK  4 micro), CASSCF E = -212.268263288687  dE = -0.00027900095  S^2 = 0.7500000
               |grad[o]|=0.0272  |grad[c]|= None  |ddm|=0.0191
macro iter 12 (21 JK  4 micro), CASSCF E = -212.26843168854  dE = -0.00016839985  S^2 = 0.7500000
               |grad[o]|=0.0269  |grad[c]|= None  |ddm|=0.0144
macro iter 13 (21 JK  4 micro), CASSCF E = -212.268466784651  dE = -3.5096111e-05  S^2 = 0.7500000
               |grad[o]|=0.0282  |grad[c]|= None  |ddm|=0.011
macro iter 14 (21 JK  4 micro), CASSCF E = -212.268545045986  dE = -7.8261336e-05  S^2 = 0.7500000
               |grad[o]|=0.0248  |grad[c]|= None  |ddm|=0.0136
macro iter 15 (21 JK  4 micro), CASSCF E = -212.268667731089  dE = -0.0001226851  S^2 = 0.7500000
               |grad[o]|=0.0235  |grad[c]|= None  |ddm|=0.0117
macro iter 16 (21 JK  4 micro), CASSCF E = -212.268781137982  dE = -0.00011340689  S^2 = 0.7500000
               |grad[o]|=0.0213  |grad[c]|= None  |ddm|=0.0107
macro iter 17 (21 JK  4 micro), CASSCF E = -212.268880139476  dE = -9.9001494e-05  S^2 = 0.7500000
               |grad[o]|=0.0193  |grad[c]|= None  |ddm|=0.00983
macro iter 18 (21 JK  4 micro), CASSCF E = -212.268964836824  dE = -8.4697348e-05  S^2 = 0.7500000
               |grad[o]|=0.0181  |grad[c]|= None  |ddm|=0.00877
macro iter 19 (21 JK  4 micro), CASSCF E = -212.269037043445  dE = -7.2206621e-05  S^2 = 0.7500000
               |grad[o]|=0.0172  |grad[c]|= None  |ddm|=0.00816
macro iter 20 (21 JK  4 micro), CASSCF E = -212.269103256266  dE = -6.6212821e-05  S^2 = 0.7500000
               |grad[o]|=0.0162  |grad[c]|= None  |ddm|=0.00767
macro iter 21 (21 JK  4 micro), CASSCF E = -212.269163288572  dE = -6.0032306e-05  S^2 = 0.7500000
               |grad[o]|=0.0154  |grad[c]|= None  |ddm|=0.00736
macro iter 22 (21 JK  4 micro), CASSCF E = -212.269218655573  dE = -5.5367001e-05  S^2 = 0.7500000
               |grad[o]|=0.0146  |grad[c]|= None  |ddm|=0.00694
macro iter 23 (21 JK  4 micro), CASSCF E = -212.269270853013  dE = -5.219744e-05  S^2 = 0.7500000
               |grad[o]|=0.0138  |grad[c]|= None  |ddm|=0.0067
macro iter 24 (21 JK  4 micro), CASSCF E = -212.269316391782  dE = -4.553877e-05  S^2 = 0.7500000
               |grad[o]|=0.0131  |grad[c]|= None  |ddm|=0.00628
macro iter 25 (7 JK  2 micro), CASSCF E = -212.269358182461  dE = -4.1790679e-05  S^2 = 0.7500000
               |grad[o]|=0.0123  |grad[c]|= None  |ddm|=0.00248
macro iter 26 (7 JK  2 micro), CASSCF E = -212.269406514161  dE = -4.8331699e-05  S^2 = 0.7500000
               |grad[o]|=0.0121  |grad[c]|= None  |ddm|=0.00278
macro iter 27 (7 JK  2 micro), CASSCF E = -212.26946500823  dE = -5.849407e-05  S^2 = 0.7500000
               |grad[o]|=0.0121  |grad[c]|= None  |ddm|=0.00297
macro iter 28 (7 JK  2 micro), CASSCF E = -212.269532948285  dE = -6.7940055e-05  S^2 = 0.7500000
               |grad[o]|=0.0122  |grad[c]|= None  |ddm|=0.00309
macro iter 29 (7 JK  2 micro), CASSCF E = -212.269609281652  dE = -7.6333366e-05  S^2 = 0.7500000
               |grad[o]|=0.0124  |grad[c]|= None  |ddm|=0.00326
macro iter 30 (7 JK  2 micro), CASSCF E = -212.269689685315  dE = -8.0403663e-05  S^2 = 0.7500000
               |grad[o]|=0.0126  |grad[c]|= None  |ddm|=0.00343
macro iter 31 (7 JK  2 micro), CASSCF E = -212.269768594526  dE = -7.8909211e-05  S^2 = 0.7500000
               |grad[o]|=0.0127  |grad[c]|= None  |ddm|=0.00365
macro iter 32 (7 JK  2 micro), CASSCF E = -212.269840796135  dE = -7.2201609e-05  S^2 = 0.7500000
               |grad[o]|=0.0129  |grad[c]|= None  |ddm|=0.00383
macro iter 33 (17 JK  4 micro), CASSCF E = -212.269941350006  dE = -0.00010055387  S^2 = 0.7500000
               |grad[o]|=0.013  |grad[c]|= None  |ddm|=0.00937
macro iter 34 (21 JK  4 micro), CASSCF E = -212.269984097984  dE = -4.2747978e-05  S^2 = 0.7500000
               |grad[o]|=0.012  |grad[c]|= None  |ddm|=0.00832
macro iter 35 (21 JK  4 micro), CASSCF E = -212.270018173971  dE = -3.4075986e-05  S^2 = 0.7500000
               |grad[o]|=0.0105  |grad[c]|= None  |ddm|=0.00719
macro iter 36 (21 JK  4 micro), CASSCF E = -212.270037792796  dE = -1.9618825e-05  S^2 = 0.7500000
               |grad[o]|=0.00977  |grad[c]|= None  |ddm|=0.00574
macro iter 37 (21 JK  4 micro), CASSCF E = -212.270051530682  dE = -1.3737886e-05  S^2 = 0.7500000
               |grad[o]|=0.00928  |grad[c]|= None  |ddm|=0.00547
macro iter 38 (17 JK  4 micro), CASSCF E = -212.270084017422  dE = -3.248674e-05  S^2 = 0.7500000
               |grad[o]|=0.0089  |grad[c]|= None  |ddm|=0.00467
macro iter 39 (7 JK  2 micro), CASSCF E = -212.270121595409  dE = -3.7577987e-05  S^2 = 0.7500000
               |grad[o]|=0.00816  |grad[c]|= None  |ddm|=0.00242
macro iter 40 (7 JK  2 micro), CASSCF E = -212.27014747756  dE = -2.5882151e-05  S^2 = 0.7500000
               |grad[o]|=0.00814  |grad[c]|= None  |ddm|=0.00216
macro iter 41 (7 JK  2 micro), CASSCF E = -212.270154873128  dE = -7.3955679e-06  S^2 = 0.7500000
               |grad[o]|=0.00812  |grad[c]|= None  |ddm|=0.000602
macro iter 42 (7 JK  2 micro), CASSCF E = -212.270160352625  dE = -5.4794967e-06  S^2 = 0.7500000
               |grad[o]|=0.00813  |grad[c]|= None  |ddm|=0.000348
macro iter 43 (7 JK  2 micro), CASSCF E = -212.270166723625  dE = -6.3709996e-06  S^2 = 0.7500000
               |grad[o]|=0.00813  |grad[c]|= None  |ddm|=0.000412
macro iter 44 (7 JK  2 micro), CASSCF E = -212.270171816709  dE = -5.0930842e-06  S^2 = 0.7500000
               |grad[o]|=0.00813  |grad[c]|= None  |ddm|=0.000498
macro iter 45 (7 JK  2 micro), CASSCF E = -212.270180521778  dE = -8.7050693e-06  S^2 = 0.7500000
               |grad[o]|=0.00811  |grad[c]|= None  |ddm|=0.000567
macro iter 46 (7 JK  2 micro), CASSCF E = -212.270189600455  dE = -9.0786765e-06  S^2 = 0.7500000
               |grad[o]|=0.00811  |grad[c]|= None  |ddm|=0.000602
macro iter 47 (7 JK  2 micro), CASSCF E = -212.270196024351  dE = -6.4238966e-06  S^2 = 0.7500000
               |grad[o]|=0.00811  |grad[c]|= None  |ddm|=0.000655
macro iter 48 (7 JK  2 micro), CASSCF E = -212.270208497546  dE = -1.2473195e-05  S^2 = 0.7500000
               |grad[o]|=0.00808  |grad[c]|= None  |ddm|=0.000713
macro iter 49 (7 JK  2 micro), CASSCF E = -212.27022040472  dE = -1.1907174e-05  S^2 = 0.7500000
               |grad[o]|=0.00809  |grad[c]|= None  |ddm|=0.000837
macro iter 50 (7 JK  2 micro), CASSCF E = -212.270231857356  dE = -1.1452636e-05  S^2 = 0.7500000
               |grad[o]|=0.00809  |grad[c]|= None  |ddm|=0.00103
1-step CASSCF not converged, 50 macro (757 JK 160 micro) steps
CASSCF canonicalization
CASSCF energy = -212.270231857356


--------------------------------------------------
                 ICMPSPT CALCULATION              
--------------------------------------------------

Perturbation type: MRLCC
With fully internally contracted scheme
With third order correction

Preparing necessary RDMs
......production of RDMs took      45.86 sec
Reading binary 4RDM from DICE
......reading the RDM took         26.99 sec

(GOOD) Trace 4RDM:  32760.0 =   15*   14*   13*   12
(GOOD) Trace 3RDM:   2730.0 =   15*   14*   13
(GOOD) Trace 2RDM:    210.0 =   15*   14
(GOOD) Trace 1RDM:     15.0 =   15

Producing the integrals
......production of INT took     158.46 sec

Energy_core =  -168.513612834
Energy      =  -212.270231857

WARNING: Have to use natural orbitals from CAASCF
         offdiagonal elements: 1.797699761

Basic ingredients written to int/
......savings of INGREDIENTS took      40.94 sec

Second-order:
perturber CCVV --        -0.147146580
perturber CCAV --        -0.010743424
perturber ACVV --        -0.437109514
perturber CCAA --        -0.000251331
perturber AAVV --        -0.398542793
perturber CAAV --        -0.065391547
perturber AAAV --        -0.105259862
perturber AAAC --        -0.000159788
Total:                   -1.164604840

Third-order:             -0.002973711

Total PT       --        -1.167578551

