 &FCI NORB=6 ,NELEC=11 ,MS2=1,
  ORBSYM=1,1,1,1,1,1,
  ISYM=1,
 &END
  1.004679193964e+00    1  1  1  1
  4.381624890913e-02    2  1  2  1
  9.170466961458e-01    2  2  1  1
  1.004679193964e+00    2  2  2  2
  6.765868150646e-05    3  1  2  1
 -6.340761468356e-05    3  1  2  2
  3.760255728084e-02    3  1  3  1
 -1.353173630125e-04    3  2  1  1
  3.170380734212e-05    3  2  2  1
  1.867308411286e-03    3  2  3  1
  2.835622228732e-02    3  2  3  2
  9.294740794024e-01    3  3  1  1
 -3.734616822573e-03    3  3  2  1
  9.479667493894e-01    3  3  2  2
  1.004679193964e+00    3  3  3  3
 -4.649789900899e-04    4  1  2  1
 -1.445515489811e-03    4  1  2  2
 -6.685782621679e-03    4  1  3  1
 -1.688197987633e-03    4  1  3  2
  1.196483359781e-02    4  1  3  3
  3.175806814270e-02    4  1  4  1
  9.299579801815e-04    4  2  1  1
  7.227577449057e-04    4  2  2  1
 -1.652754806490e-03    4  2  3  1
  7.095314477410e-03    4  2  3  2
 -8.961421344618e-03    4  2  3  3
 -5.934284804639e-03    4  2  4  1
  3.248998514014e-02    4  2  4  2
  1.337156524336e-02    4  3  1  1
  3.340952794124e-03    4  3  2  1
 -1.419062895483e-02    4  3  2  2
 -5.982416798905e-03    4  3  3  1
  4.480710672309e-03    4  3  3  2
  6.128551188410e-03    4  3  4  1
  3.376502090619e-03    4  3  4  2
  3.765940461272e-02    4  3  4  3
  9.411630576787e-01    4  4  1  1
  1.186856960928e-02    4  4  2  1
  9.396992236838e-01    4  4  2  2
 -1.225710237682e-02    4  4  3  1
 -6.753004181238e-03    4  4  3  2
  9.293603847386e-01    4  4  3  3
  1.004679193964e+00    4  4  4  4
  9.408044907977e-04    5  1  2  1
 -3.289244290177e-04    5  1  2  2
 -4.916005683314e-03    5  1  3  1
  5.637851480693e-03    5  1  3  2
  1.698053280622e-03    5  1  3  3
  2.430975678884e-03    5  1  4  1
  5.868889420028e-03    5  1  4  2
  7.108776240757e-03    5  1  4  3
 -1.369128851606e-03    5  1  4  4
  2.794478324923e-02    5  1  5  1
 -1.881608981596e-03    5  2  1  1
  1.644622145083e-04    5  2  2  1
  4.457927056091e-03    5  2  3  1
  4.991411494495e-03    5  2  3  2
  1.496658609948e-02    5  2  3  3
  7.175215210883e-03    5  2  4  1
 -2.705434270693e-03    5  2  4  2
  5.908229263037e-03    5  2  4  3
 -1.308497711788e-02    5  2  4  4
  4.066976393354e-03    5  2  5  1
  3.645920124532e-02    5  2  5  2
  9.832011366632e-03    5  3  1  1
 -1.009577853679e-02    5  3  2  1
 -9.982822988994e-03    5  3  2  2
 -8.490266403113e-04    5  3  3  1
 -7.483293049738e-03    5  3  3  2
  3.334246453404e-03    5  3  4  1
 -8.536425010371e-03    5  3  4  2
  2.744585918089e-04    5  3  4  3
  1.508116223603e-04    5  3  4  4
 -6.160254995752e-03    5  3  5  1
 -3.444160772125e-03    5  3  5  2
  3.750347340102e-02    5  3  5  3
 -4.861951357770e-03    5  4  1  1
 -1.304410463092e-02    5  4  2  1
  5.410868541389e-03    5  4  2  2
 -1.044302269416e-02    5  4  3  1
  2.628195747333e-03    5  4  3  2
 -5.489171836178e-04    5  4  3  3
  6.845644258030e-04    5  4  4  1
  6.542488558941e-03    5  4  4  2
 -7.540581118021e-05    5  4  4  3
  5.259659053999e-03    5  4  5  1
 -4.015731682219e-03    5  4  5  2
 -4.095318557316e-04    5  4  5  3
  3.921419968634e-02    5  4  5  4
  9.487896274656e-01    5  5  1  1
 -8.133952786710e-03    5  5  2  1
  9.317607914734e-01    5  5  2  2
  1.232050999150e-02    5  5  3  1
  6.888321544250e-03    5  5  3  2
  9.296722471620e-01    5  5  3  3
 -1.051931810800e-02    5  5  4  1
  8.031463364438e-03    5  5  4  2
  8.190637114610e-04    5  5  4  3
  9.262507945914e-01    5  5  4  4
  1.004679193964e+00    5  5  5  5
  1.593352307910e-03    6  1  1  1
  2.048594239688e-04    6  1  2  1
 -1.586022620876e-03    6  1  2  2
 -5.996894961313e-05    6  1  3  1
 -7.645223139971e-06    6  1  3  2
 -7.346545313237e-04    6  1  3  3
  3.232276835349e-05    6  1  4  1
  7.606252419628e-05    6  1  4  2
  9.934927414192e-04    6  1  4  3
  2.266431450885e-04    6  1  4  4
  3.551236445704e-05    6  1  5  1
 -1.244237854081e-04    6  1  5  2
  5.899061998262e-04    6  1  5  3
 -4.176207470175e-04    6  1  5  4
  5.006816992056e-04    6  1  5  5
  7.017206677235e-03    6  1  6  1
  2.048594239691e-04    6  2  1  1
 -1.586022620877e-03    6  2  2  1
 -2.083360555682e-04    6  2  2  2
 -7.645223139963e-06    6  2  3  1
 -7.983571795180e-05    6  2  3  2
  2.154124580210e-04    6  2  3  3
  7.606252419629e-05    6  2  4  1
 -1.414503779492e-04    6  2  4  2
 -1.480613904143e-04    6  2  4  3
 -7.741065408624e-04    6  2  4  4
 -1.244237854081e-04    6  2  5  1
 -3.724926500356e-05    6  2  5  2
  8.726047829950e-04    6  2  5  3
  8.094275149905e-04    6  2  5  4
  5.621707144421e-04    6  2  5  5
  7.017206677235e-03    6  2  6  2
 -5.996894961312e-05    6  3  1  1
 -7.645223139967e-06    6  3  2  1
 -7.983571795180e-05    6  3  2  2
 -7.346545313245e-04    6  3  3  1
  2.154124580207e-04    6  3  3  2
  1.120036894755e-03    6  3  3  3
  9.934927414193e-04    6  3  4  1
 -1.480613904143e-04    6  3  4  2
  8.556313776644e-04    6  3  4  3
 -1.840063312213e-04    6  3  4  4
  5.899061998262e-04    6  3  5  1
  8.726047829952e-04    6  3  5  2
 -1.180407450224e-04    6  3  5  3
  3.314864561075e-04    6  3  5  4
 -7.962258959690e-04    6  3  5  5
  7.017206677235e-03    6  3  6  3
  3.232276835350e-05    6  4  1  1
  7.606252419628e-05    6  4  2  1
 -1.414503779492e-04    6  4  2  2
  9.934927414193e-04    6  4  3  1
 -1.480613904143e-04    6  4  3  2
  8.556313776645e-04    6  4  3  3
  2.266431450877e-04    6  4  4  1
 -7.741065408629e-04    6  4  4  2
 -1.840063312212e-04    6  4  4  3
 -8.967548543968e-04    6  4  4  4
 -4.176207470175e-04    6  4  5  1
  8.094275149907e-04    6  4  5  2
  3.314864561076e-04    6  4  5  3
 -1.047857563972e-03    6  4  5  4
  1.502510863281e-04    6  4  5  5
  7.017206677235e-03    6  4  6  4
  3.551236445705e-05    6  5  1  1
 -1.244237854081e-04    6  5  2  1
 -3.724926500354e-05    6  5  2  2
  5.899061998262e-04    6  5  3  1
  8.726047829952e-04    6  5  3  2
 -1.180407450224e-04    6  5  3  3
 -4.176207470175e-04    6  5  4  1
  8.094275149907e-04    6  5  4  2
  3.314864561076e-04    6  5  4  3
 -1.047857563972e-03    6  5  4  4
  5.006816992049e-04    6  5  5  1
  5.621707144420e-04    6  5  5  2
 -7.962258959691e-04    6  5  5  3
  1.502510863281e-04    6  5  5  4
  1.167635209541e-03    6  5  5  5
  7.017206677235e-03    6  5  6  5
  3.622650945978e-01    6  6  1  1
  3.622650945978e-01    6  6  2  2
  3.622650945978e-01    6  6  3  3
  3.622650945978e-01    6  6  4  4
  3.622650945978e-01    6  6  5  5
  2.779577350639e-01    6  6  6  6
 -9.174409072545e+00    1  1  0  0
 -9.174409072545e+00    2  2  0  0
 -9.174409072545e+00    3  3  0  0
 -9.174409072545e+00    4  4  0  0
 -9.174409072545e+00    5  5  0  0
 -3.831708273577e+00    6  6  0  0
   -146.257027845351   0  0  0  0
