 &FCI NORB=9 ,NELEC=9 ,MS2=3,
  ORBSYM=1,1,1,1,1,1,1,1,1,
  ISYM=1,
 &END
  6.531972890390e-01    1  1  1  1
  2.945386176355e-02    2  1  2  1
  5.881591787621e-01    2  2  1  1
  6.484979242133e-01    2  2  2  2
  2.945386176355e-02    3  1  3  1
 -3.011363715424e-10    3  2  2  2
  2.876327187743e-02    3  2  3  2
  5.881591787621e-01    3  3  1  1
  5.909706968717e-01    3  3  2  2
  3.011363577704e-10    3  3  3  2
  6.484979242133e-01    3  3  3  3
  1.638000989527e-02    4  1  1  1
  7.101304133734e-03    4  1  2  2
  7.101304133735e-03    4  1  3  3
  7.924839387328e-03    4  1  4  1
 -1.711480972770e-03    4  2  2  1
  3.446365119579e-07    4  2  3  1
  1.957918819014e-03    4  2  4  2
 -3.446365119646e-07    4  3  2  1
 -1.711480972770e-03    4  3  3  1
  1.957918819014e-03    4  3  4  3
  2.537513233112e-01    4  4  1  1
  2.307993195510e-01    4  4  2  2
  2.307993195510e-01    4  4  3  3
  1.116652965182e-02    4  4  4  1
  2.820331961845e-01    4  4  4  4
  3.856700104140e-04    5  1  2  2
  8.499629177906e-05    5  1  3  2
 -3.856700104151e-04    5  1  3  3
  9.541796803560e-03    5  1  5  1
 -1.861517801090e-03    5  2  2  1
 -4.002815054041e-04    5  2  3  1
  5.648727540368e-04    5  2  4  2
  1.211819329571e-04    5  2  4  3
  5.015416585771e-03    5  2  5  2
 -4.002815054041e-04    5  3  2  1
  1.861517801089e-03    5  3  3  1
  1.211819329571e-04    5  3  4  2
 -5.648727540367e-04    5  3  4  3
  5.015416585771e-03    5  3  5  3
  2.458592221503e-03    5  4  2  2
  5.273779060264e-04    5  4  3  2
 -2.458592221501e-03    5  4  3  3
  4.492977641345e-03    5  4  5  1
  1.192207256388e-02    5  4  5  4
  4.122973846922e-01    5  5  1  1
  3.471697206949e-01    5  5  2  2
  3.471697206949e-01    5  5  3  3
  4.314262868992e-02    5  5  4  1
  3.470860041603e-01    5  5  4  4
  7.090712118533e-01    5  5  5  5
 -8.499606832953e-05    6  1  2  2
  3.856695020803e-04    6  1  3  2
  8.499606832817e-05    6  1  3  3
 -2.126918514416e-12    6  1  5  1
  6.102960665726e-08    6  1  5  4
  9.541794194647e-03    6  1  6  1
  4.002828314180e-04    6  2  2  1
 -1.861512329899e-03    6  2  3  1
 -1.211825501954e-04    6  2  4  2
  5.648701192309e-04    6  2  4  3
 -1.440924406972e-09    6  2  5  2
 -2.429005581120e-03    6  2  5  3
  5.015410109809e-03    6  2  6  2
 -1.861512329899e-03    6  3  2  1
 -4.002828314182e-04    6  3  3  1
  5.648701192309e-04    6  3  4  2
  1.211825501955e-04    6  3  4  3
  2.429005581121e-03    6  3  5  2
 -1.440924426068e-09    6  3  5  3
  5.015410109809e-03    6  3  6  3
 -5.273800707785e-04    6  4  2  2
  2.458583462865e-03    6  4  3  2
  5.273800707793e-04    6  4  3  3
 -6.066448789687e-08    6  4  5  1
  3.730294155621e-10    6  4  5  4
  4.492978439902e-03    6  4  6  1
  1.192207961483e-02    6  4  6  4
  2.316676701240e-10    6  5  1  1
 -8.898101738197e-10    6  5  2  2
 -8.898102087561e-10    6  5  3  3
  3.331629259658e-10    6  5  4  1
  9.751435655548e-10    6  5  4  4
  3.040931268044e-09    6  5  5  5
  1.504137782589e-02    6  5  6  5
  4.122973648867e-01    6  6  1  1
  3.471697030030e-01    6  6  2  2
  3.471697030030e-01    6  6  3  3
  4.314262624249e-02    6  6  4  1
  3.470860044403e-01    6  6  4  4
  6.789884282910e-01    6  6  5  5
  3.040931268778e-09    6  6  6  5
  7.090711560323e-01    6  6  6  6
  9.167179457644e-03    7  1  2  1
 -1.179211268218e-05    7  1  3  1
 -4.284463306528e-04    7  1  4  2
  6.104895007969e-07    7  1  4  3
  1.851575474715e-03    7  1  5  2
  4.031946558686e-04    7  1  5  3
 -4.031923747544e-04    7  1  6  2
  1.851584415030e-03    7  1  6  3
  1.304653166143e-02    7  1  7  1
  1.174309009671e-01    7  2  1  1
  1.692100030366e-01    7  2  2  2
 -1.491706343364e-05    7  2  3  2
  1.462226773010e-01    7  2  3  3
 -1.444016216305e-02    7  2  4  1
 -3.860801500739e-02    7  2  4  4
 -1.817595107468e-03    7  2  5  1
 -2.443018114985e-03    7  2  5  4
 -9.565289183139e-02    7  2  5  5
  3.967494375069e-04    7  2  6  1
  5.324825013259e-04    7  2  6  4
  5.122779373722e-09    7  2  6  5
 -9.565286454749e-02    7  2  6  6
  1.493576747415e-01    7  2  7  2
 -1.871732626892e-04    7  3  1  1
 -2.349787409885e-04    7  3  2  2
  1.149235537521e-02    7  3  3  2
 -2.648163282057e-04    7  3  3  3
  2.178340238148e-05    7  3  4  1
  5.968396131332e-05    7  3  4  4
 -3.967394647744e-04    7  3  5  1
 -5.324790110340e-04    7  3  5  4
  1.377276115369e-04    7  3  5  5
 -1.817551426852e-03    7  3  6  1
 -2.443007847779e-03    7  3  6  4
 -8.931092161378e-09    7  3  6  5
  1.377365021496e-04    7  3  6  6
 -2.149755041244e-04    7  3  7  2
  1.211644597335e-02    7  3  7  3
  8.061893818002e-04    7  4  2  1
 -2.238037433066e-06    7  4  3  1
 -3.039103266170e-03    7  4  4  2
  5.316684583617e-06    7  4  4  3
 -3.534328166282e-04    7  4  5  2
 -7.681126887573e-05    7  4  5  3
  7.681509546045e-05    7  4  6  2
 -3.534163685495e-04    7  4  6  3
 -6.134400445696e-05    7  4  7  1
  6.084091436517e-03    7  4  7  4
  3.373966735063e-03    7  5  2  1
  7.315980973270e-04    7  5  3  1
 -8.757522799131e-04    7  5  4  2
 -1.895387570722e-04    7  5  4  3
 -8.068748880886e-03    7  5  5  2
  1.186689871933e-05    7  5  5  3
 -5.623024053937e-06    7  5  6  2
 -3.708256125302e-03    7  5  6  3
 -2.185418702886e-03    7  5  7  1
  7.423637944842e-04    7  5  7  4
  1.833299452881e-02    7  5  7  5
 -7.315993906589e-04    7  6  2  1
  3.373953098722e-03    7  6  3  1
  1.895437569197e-04    7  6  4  2
 -8.757278214598e-04    7  6  4  3
  5.656770502330e-06    7  6  5  2
  3.708206753538e-03    7  6  5  3
 -8.068681252458e-03    7  6  6  2
  1.189256632642e-05    7  6  6  3
  4.799326263725e-04    7  6  7  1
 -1.623238489980e-04    7  6  7  4
 -5.061742917554e-08    7  6  7  5
  1.833277562973e-02    7  6  7  6
  5.186747112537e-01    7  7  1  1
  5.085898532390e-01    7  7  2  2
 -5.427822230654e-05    7  7  3  2
  4.774352733897e-01    7  7  3  3
  2.871417274021e-02    7  7  4  1
  2.976660630483e-01    7  7  4  4
  4.646851654503e-03    7  7  5  1
  5.135163624714e-03    7  7  5  4
  5.271536907812e-01    7  7  5  5
 -1.022527471206e-03    7  7  6  1
 -1.127855733041e-03    7  7  6  4
 -2.017674323823e-08    7  7  6  5
  5.271535764211e-01    7  7  6  6
  2.949483555994e-02    7  7  7  2
 -5.488856010013e-05    7  7  7  3
  5.617578486069e-01    7  7  7  7
  1.179211268218e-05    8  1  2  1
  9.167179457644e-03    8  1  3  1
 -6.104895007872e-07    8  1  4  2
 -4.284463306529e-04    8  1  4  3
  4.031946558686e-04    8  1  5  2
 -1.851575474715e-03    8  1  5  3
  1.851584415030e-03    8  1  6  2
  4.031923747543e-04    8  1  6  3
  6.726169357303e-07    8  1  7  4
 -4.799264227713e-04    8  1  7  5
 -2.185400293566e-03    8  1  7  6
  1.304653166143e-02    8  1  8  1
  1.871732626893e-04    8  2  1  1
  2.648163282059e-04    8  2  2  2
  1.149235537521e-02    8  2  3  2
  2.349787409887e-04    8  2  3  3
 -2.178340238151e-05    8  2  4  1
 -5.968396131333e-05    8  2  4  4
 -3.967394647744e-04    8  2  5  1
 -5.324790110340e-04    8  2  5  4
 -1.377276115370e-04    8  2  5  5
 -1.817551426852e-03    8  2  6  1
 -2.443007847779e-03    8  2  6  4
  8.931092155288e-09    8  2  6  5
 -1.377365021497e-04    8  2  6  6
  2.149764952067e-04    8  2  7  2
  1.211576718483e-02    8  2  7  3
  4.819666788054e-05    8  2  7  7
  1.211644597335e-02    8  2  8  2
  1.174309009671e-01    8  3  1  1
  1.462226773010e-01    8  3  2  2
  1.491706343365e-05    8  3  3  2
  1.692100030366e-01    8  3  3  3
 -1.444016216305e-02    8  3  4  1
 -3.860801500739e-02    8  3  4  4
  1.817595107468e-03    8  3  5  1
  2.443018114984e-03    8  3  5  4
 -9.565289183139e-02    8  3  5  5
 -3.967494375081e-04    8  3  6  1
 -5.324825013261e-04    8  3  6  4
  5.122779414040e-09    8  3  6  5
 -9.565286454750e-02    8  3  6  6
  1.251229532179e-01    8  3  7  2
 -2.149764952066e-04    8  3  7  3
  2.639231315538e-02    8  3  7  7
  2.149755041246e-04    8  3  8  2
  1.493576747415e-01    8  3  8  3
  2.238037433071e-06    8  4  2  1
  8.061893818002e-04    8  4  3  1
 -5.316684583625e-06    8  4  4  2
 -3.039103266170e-03    8  4  4  3
 -7.681126887574e-05    8  4  5  2
  3.534328166280e-04    8  4  5  3
 -3.534163685495e-04    8  4  6  2
 -7.681509546048e-05    8  4  6  3
 -6.726169357560e-07    8  4  7  1
  1.623118297316e-04    8  4  7  5
  7.423021855986e-04    8  4  7  6
 -6.134400445688e-05    8  4  8  1
  6.084091436517e-03    8  4  8  4
  7.315980973270e-04    8  5  2  1
 -3.373966735063e-03    8  5  3  1
 -1.895387570722e-04    8  5  4  2
  8.757522799130e-04    8  5  4  3
 -1.186689871934e-05    8  5  5  2
 -8.068748880886e-03    8  5  5  3
  3.708256125302e-03    8  5  6  2
 -5.623024053916e-06    8  5  6  3
 -4.799264227713e-04    8  5  7  1
  1.623118297316e-04    8  5  7  4
 -8.239718983331e-03    8  5  7  6
  2.185418702886e-03    8  5  8  1
 -7.423637944840e-04    8  5  8  4
  1.833299452881e-02    8  5  8  5
  3.373953098722e-03    8  6  2  1
  7.315993906588e-04    8  6  3  1
 -8.757278214599e-04    8  6  4  2
 -1.895437569198e-04    8  6  4  3
 -3.708206753538e-03    8  6  5  2
  5.656770502326e-06    8  6  5  3
 -1.189256632644e-05    8  6  6  2
 -8.068681252458e-03    8  6  6  3
 -2.185400293566e-03    8  6  7  1
  7.423021855987e-04    8  6  7  4
  8.239718983331e-03    8  6  7  5
 -4.799326263725e-04    8  6  8  1
  1.623238489981e-04    8  6  8  4
 -5.061742916673e-08    8  6  8  5
  1.833277562973e-02    8  6  8  6
  5.427952721593e-05    8  7  2  2
  1.557585182273e-02    8  7  3  2
 -5.427952721619e-05    8  7  3  3
  1.022513401323e-03    8  7  5  1
  1.127814548659e-03    8  7  5  4
  4.646785137384e-03    8  7  6  1
  5.134980279971e-03    8  7  6  4
  3.352293953850e-06    8  7  7  2
  1.550191039255e-03    8  7  7  3
  1.748824484333e-09    8  7  7  7
  1.550191039255e-03    8  7  8  2
 -3.352293953687e-06    8  7  8  3
  1.885840522923e-02    8  7  8  7
  5.186747112537e-01    8  8  1  1
  4.774352733897e-01    8  8  2  2
  5.427822230656e-05    8  8  3  2
  5.085898532390e-01    8  8  3  3
  2.871417274021e-02    8  8  4  1
  2.976660630483e-01    8  8  4  4
 -4.646851654503e-03    8  8  5  1
 -5.135163624711e-03    8  8  5  4
  5.271536907812e-01    8  8  5  5
  1.022527471206e-03    8  8  6  1
  1.127855733042e-03    8  8  6  4
 -2.017674332841e-08    8  8  6  5
  5.271535764211e-01    8  8  6  6
  2.639231315538e-02    8  8  7  2
 -4.819666788046e-05    8  8  7  3
  5.240378560289e-01    8  8  7  7
  5.488856010019e-05    8  8  8  2
  2.949483555994e-02    8  8  8  3
 -1.748824992340e-09    8  8  8  7
  5.617578486069e-01    8  8  8  8
  1.420166696317e-01    9  1  1  1
  1.558994013485e-01    9  1  2  2
  1.558994013485e-01    9  1  3  3
 -1.994446527310e-02    9  1  4  1
 -5.438304334420e-02    9  1  4  4
 -1.344260855388e-01    9  1  5  5
 -2.239998721549e-09    9  1  6  5
 -1.344260874323e-01    9  1  6  6
  1.408691176179e-01    9  1  7  2
 -2.166752372726e-04    9  1  7  3
  4.498234563935e-03    9  1  7  7
  2.166752372727e-04    9  1  8  2
  1.408691176179e-01    9  1  8  3
  4.498234563934e-03    9  1  8  8
  1.906391329329e-01    9  1  9  1
  1.448630303836e-02    9  2  2  1
  3.467527919564e-06    9  2  3  1
 -6.224940212513e-04    9  2  4  2
 -4.828615629099e-07    9  2  4  3
 -1.097592858704e-03    9  2  5  2
 -2.322812933332e-04    9  2  5  3
  2.322813817259e-04    9  2  6  2
 -1.097593608377e-03    9  2  6  3
  9.783401783109e-03    9  2  7  1
  5.811440531944e-04    9  2  7  4
 -8.068099198048e-04    9  2  7  5
  1.785900282275e-04    9  2  7  6
  1.226481237708e-05    9  2  8  1
  1.172350235123e-06    9  2  8  4
 -1.785908207375e-04    9  2  8  5
 -8.068004071088e-04    9  2  8  6
  1.566872503137e-02    9  2  9  2
 -3.467527919577e-06    9  3  2  1
  1.448630303836e-02    9  3  3  1
  4.828615629159e-07    9  3  4  2
 -6.224940212513e-04    9  3  4  3
 -2.322812933332e-04    9  3  5  2
  1.097592858704e-03    9  3  5  3
 -1.097593608377e-03    9  3  6  2
 -2.322813817260e-04    9  3  6  3
 -1.226481237706e-05    9  3  7  1
 -1.172350235131e-06    9  3  7  4
 -1.785908207375e-04    9  3  7  5
 -8.068004071088e-04    9  3  7  6
  9.783401783109e-03    9  3  8  1
  5.811440531944e-04    9  3  8  4
  8.068099198047e-04    9  3  8  5
 -1.785900282276e-04    9  3  8  6
  1.566872503137e-02    9  3  9  3
 -5.543005279554e-02    9  4  1  1
 -4.140787303521e-02    9  4  2  2
 -4.140787303521e-02    9  4  3  3
 -1.213777533232e-02    9  4  4  1
 -1.555133602695e-02    9  4  4  4
 -7.777407762770e-02    9  4  5  5
 -1.608987972960e-09    9  4  6  5
 -7.777408097585e-02    9  4  6  6
  9.844476900086e-03    9  4  7  2
 -1.223352841897e-05    9  4  7  3
 -6.707771640756e-02    9  4  7  7
  1.223352841898e-05    9  4  8  2
  9.844476900086e-03    9  4  8  3
 -6.707771640756e-02    9  4  8  8
  1.714377653051e-02    9  4  9  1
  2.486347289876e-02    9  4  9  4
 -1.939930845111e-03    9  5  2  2
 -4.179111082566e-04    9  5  3  2
  1.939930845111e-03    9  5  3  3
 -1.341145688210e-02    9  5  5  1
 -6.833450047989e-03    9  5  5  4
  1.074864134027e-09    9  5  6  1
  9.375575799418e-08    9  5  6  4
  2.856659143904e-03    9  5  7  2
  6.236858479336e-04    9  5  7  3
 -6.938375558599e-03    9  5  7  7
  6.236858479336e-04    9  5  8  2
 -2.856659143905e-03    9  5  8  3
 -1.525139882994e-03    9  5  8  7
  6.938375558600e-03    9  5  8  8
  2.083042742419e-02    9  5  9  5
  4.179119254479e-04    9  6  2  2
 -1.939932383366e-03    9  6  3  2
 -4.179119254488e-04    9  6  3  3
 -5.937685062354e-09    9  6  5  1
 -1.000612474331e-07    9  6  5  4
 -1.341147191744e-02    9  6  6  1
 -6.833474302920e-03    9  6  6  4
 -6.236925734544e-04    9  6  7  2
  2.856640753686e-03    9  6  7  3
  1.525170763702e-03    9  6  7  7
  2.856640753686e-03    9  6  8  2
  6.236925734536e-04    9  6  8  3
 -6.938255506594e-03    9  6  8  7
 -1.525170763702e-03    9  6  8  8
  7.311225685016e-09    9  6  9  5
  2.083047822863e-02    9  6  9  6
  1.560883347788e-02    9  7  2  1
 -2.665827184572e-05    9  7  3  1
 -2.483010611071e-04    9  7  4  2
  7.188625109650e-07    9  7  4  3
 -1.476202463843e-03    9  7  5  2
 -3.226987056610e-04    9  7  5  3
  3.226992842790e-04    9  7  6  2
 -1.476194476380e-03    9  7  6  3
  1.998146764727e-03    9  7  7  1
 -8.136853329364e-04    9  7  7  4
  4.374073388574e-03    9  7  7  5
 -9.620915413134e-04    9  7  7  6
 -1.255612771287e-07    9  7  8  1
  4.727775868796e-07    9  7  8  4
  9.620924694748e-04    9  7  8  5
  4.374063131115e-03    9  7  8  6
  5.005812620546e-03    9  7  9  2
 -8.950987721232e-06    9  7  9  3
  1.698170536997e-02    9  7  9  7
  2.665827184576e-05    9  8  2  1
  1.560883347788e-02    9  8  3  1
 -7.188625109871e-07    9  8  4  2
 -2.483010611071e-04    9  8  4  3
 -3.226987056611e-04    9  8  5  2
  1.476202463843e-03    9  8  5  3
 -1.476194476380e-03    9  8  6  2
 -3.226992842791e-04    9  8  6  3
  1.255612771092e-07    9  8  7  1
 -4.727775868446e-07    9  8  7  4
  9.620924694749e-04    9  8  7  5
  4.374063131115e-03    9  8  7  6
  1.998146764727e-03    9  8  8  1
 -8.136853329365e-04    9  8  8  4
 -4.374073388574e-03    9  8  8  5
  9.620915413134e-04    9  8  8  6
  8.950987721198e-06    9  8  9  2
  5.005812620545e-03    9  8  9  3
  1.698170536997e-02    9  8  9  8
  5.668630572362e-01    9  9  1  1
  4.889934694061e-01    9  9  2  2
  4.889934694061e-01    9  9  3  3
  3.467240667255e-02    9  9  4  1
  3.123445582776e-01    9  9  4  4
  5.588362306267e-01    9  9  5  5
  4.489952297792e-09    9  9  6  5
  5.588362261910e-01    9  9  6  6
  1.815061003707e-02    9  9  7  2
 -3.769690151230e-05    9  9  7  3
  5.583337750942e-01    9  9  7  7
  3.769690151242e-05    9  9  8  2
  1.815061003707e-02    9  9  8  3
  5.583337750942e-01    9  9  8  8
 -1.724030352535e-03    9  9  9  1
 -7.845043023783e-02    9  9  9  4
  6.325490184198e-01    9  9  9  9
 -4.472914450413e+00    1  1  0  0
 -4.287300405147e+00    2  2  0  0
 -4.287300405147e+00    3  3  0  0
 -1.504835421467e-01    4  1  0  0
 -2.372304400349e+00    4  4  0  0
 -3.689464245776e+00    5  5  0  0
 -3.171627297322e-09    6  5  0  0
 -3.689464113389e+00    6  6  0  0
 -4.057699532600e-01    7  2  0  0
  4.713932612884e-04    7  3  0  0
 -3.795553232517e+00    7  7  0  0
 -4.713932612906e-04    8  2  0  0
 -4.057699532600e-01    8  3  0  0
 -3.795553232517e+00    8  8  0  0
 -3.846011437735e-01    9  1  0  0
  3.874456100134e-01    9  4  0  0
 -3.844567565300e+00    9  9  0  0
    -66.522657853844   0  0  0  0
