#INFO: **** input file is /projects/bamu3429/BENCHMARK/fresh_atoms/MRPT/vtz/monoxides/VO/mrpt.py ****
import json
from pyscf import gto,scf,mcscf, fci, lo, ci, cc
from pyscf.scf import ROHF, UHF,ROKS
import numpy as np
import pandas as pd

# THIS IS WERE IT STARTS ====================================

df=json.load(open("../../../trail.json"))

spins={'ScO':1, 'TiO':2, 'VO':3, 'CrO':4, 'MnO':5, 'FeO':4, 'CuO':1}

nd={'Sc':(1,0), 'Ti':(2,0), 'V':(3,0), 'Cr':(5,0), 'Mn':(5,0), 'Fe':(5,1), 'Cu':(5,4)}

cas={'Sc':3, 'Ti':4, 'V':5, 'Cr':6, 'Mn':7, 'Fe':8, 'Cu':11}

re={'ScO':1.668, 'TiO':1.623, 'VO':1.591, 'CrO':1.621, 'MnO':1.648, 'FeO':1.616, 'CuO':1.725}

datacsv={}
for nm in ['basis','charge','method','molecule','pseudopotential',
           'totalenergy','totalenergy-stocherr','totalenergy-syserr']:
  datacsv[nm]=[]

basis='vtz'
element='V'

mol=gto.Mole()
mol.ecp={}
mol.basis={}
for el in [element,'O']:
  mol.ecp[el]=gto.basis.parse_ecp(df[el]['ecp'])
  mol.basis[el]=gto.basis.parse(df[el][basis])
mol.charge=0
mol.spin=spins[element+'O']
mol.build(atom="%s 0. 0. 0.; O 0. 0. %g"%(element,re[element+'O']),verbose=4)

m=ROHF(mol)
m.level_shift=1000.0
dm=m.from_chk("../../../../HF/monoxides/"+element+basis+"0.chk")
hf=m.kernel(dm)
m.analyze()

from pyscf.shciscf import shci
mc = shci.SHCISCF(m, 9, 4+cas[element])
#mc.fcisolver.conv_tol = 1e-14
mc.fcisolver.mpiprefix="mpirun -np 28"
mc.fcisolver.num_thrds=12
mc.verbose = 4
cas=mc.kernel()[0]
 
from pyscf.icmpspt import icmpspt
pt=icmpspt.icmpspt(mc,rdmM=500, PTM=1000,\
                          pttype="MRLCC",\
                          third_order=True,\
                          fully_ic=True,\
                          do_dm4=True)

datacsv['basis'].append(basis)
datacsv['charge'].append(0)
datacsv['method'].append('MRPT')
datacsv['molecule'].append(element)
datacsv['pseudopotential'].append('trail')
datacsv['totalenergy'].append(cas+pt)
datacsv['totalenergy-stocherr'].append(0.0)
datacsv['totalenergy-syserr'].append(0.0)
pd.DataFrame(datacsv).to_csv(element+".csv",index=False)

#INFO: ******************** input file end ********************


System: ('Linux', 'bnode0304.rc.int.colorado.edu', '3.10.0-514.41.1.el7.x86_64', '#1 SMP Wed Jan 17 10:26:16 EST 2018', 'x86_64', 'x86_64')  Threads 28
Python 2.7.11 (default, Mar 22 2016, 01:42:54) 
[GCC Intel(R) C++ gcc 4.8 mode]
numpy 1.11.1  scipy 0.17.1
Date: Thu Mar 29 16:27:39 2018
PySCF version 1.4
PySCF path  /projects/bamu3429/softwares/pyscf_uptodate/pyscf
GIT ORIG_HEAD e2292e6edec2b0e0024c21b81de03db1d7bd4121
GIT HEAD      ref: refs/heads/master
GIT master branch  f3591ef22170896a4cdc2aadaa6f5da388ffcadb

[INPUT] VERBOSE 4
[INPUT] num atoms = 2
[INPUT] num electrons = 19
[INPUT] charge = 0
[INPUT] spin (= nelec alpha-beta = 2S) = 3
[INPUT] symmetry False subgroup None
[INPUT]  1 V      0.000000000000   0.000000000000   0.000000000000 AA    0.000000000000   0.000000000000   0.000000000000 Bohr
[INPUT]  2 O      0.000000000000   0.000000000000   1.591000000000 AA    0.000000000000   0.000000000000   3.006554264183 Bohr
[INPUT] ---------------- BASIS SET ---------------- 
[INPUT] l, kappa, [nprim/nctr], expnt,             c_1 c_2 ...
[INPUT] O
[INPUT] 0    0    [10   /1   ]  57.663349         -0.002794
                                35.726816         0.023976
                                22.453757         -0.115974
                                14.732301         0.288033
                                9.739917          -0.274786
                                5.042008          -0.083789
                                2.157818          0.063778
                                1.002916          0.410182
                                0.421839          0.504044
                                0.173041          0.172152
[INPUT] 0    0    [1    /1   ]  1.849096             1
[INPUT] 0    0    [1    /1   ]  0.255434             1
[INPUT] 0    0    [1    /1   ]  0.141483             1
[INPUT] 1    0    [10   /1   ]  52.47406          -0.000522
                                32.138432         0.004857
                                19.458579         -0.027749
                                11.839344         0.074258
                                7.91003           0.014369
                                3.670858          0.153479
                                1.53966           0.283685
                                0.647119          0.358201
                                0.267853          0.29559
                                0.107198          0.104889
[INPUT] 1    0    [1    /1   ]  0.622175             1
[INPUT] 1    0    [1    /1   ]  0.193391             1
[INPUT] 1    0    [1    /1   ]  0.052779             1
[INPUT] 2    0    [1    /1   ]  2.324251             1
[INPUT] 2    0    [1    /1   ]  0.656935             1
[INPUT] 2    0    [1    /1   ]  0.2072               1
[INPUT] 3    0    [1    /1   ]  1.423472             1
[INPUT] 3    0    [1    /1   ]  0.48761              1
[INPUT] V
[INPUT] 0    0    [12   /1   ]  33.51168105       0.006845
                                15.38532624       -0.214557
                                9.96227367        1.392425
                                8.05943355        -1.485929
                                3.6960334         -0.026725
                                1.49220279        0.457681
                                0.84622253        0.506886
                                0.43855031        0.249453
                                0.2102388         0.007109
                                0.1022422         0.007055
                                0.04832462        -0.000443
                                0.02406855        0.001278
[INPUT] 0    0    [12   /1   ]  33.51168105       -0.001211
                                15.38532624       0.04697
                                9.96227367        -0.329808
                                8.05943355        0.363635
                                3.6960334         0.005985
                                1.49220279        -0.140857
                                0.84622253        -0.203846
                                0.43855031        -0.200776
                                0.2102388         0.022081
                                0.1022422         0.429765
                                0.04832462        0.534383
                                0.02406855        0.187984
[INPUT] 0    0    [12   /1   ]  33.51168105       -0.007111
                                15.38532624       0.233807
                                9.96227367        -1.69649
                                8.05943355        1.967562
                                3.6960334         -0.221986
                                1.49220279        -1.566848
                                0.84622253        0.314532
                                0.43855031        0.552762
                                0.2102388         0.87483
                                0.1022422         0.073061
                                0.04832462        -0.50294
                                0.02406855        -0.328304
[INPUT] 0    0    [12   /1   ]  33.51168105       -0.013861
                                15.38532624       0.372746
                                9.96227367        -2.690047
                                8.05943355        3.225629
                                3.6960334         -0.892796
                                1.49220279        -2.437526
                                0.84622253        2.347767
                                0.43855031        1.223514
                                0.2102388         -1.131537
                                0.1022422         -1.231287
                                0.04832462        0.586808
                                0.02406855        0.648032
[INPUT] 0    0    [1    /1   ]  0.02406855           1
[INPUT] 0    0    [1    /1   ]  0.01198757           1
[INPUT] 1    0    [12   /1   ]  49.83779697       0.000413
                                25.60370921       -0.003442
                                10.40982442       0.097153
                                7.71483683        -0.206888
                                4.49868206        0.083281
                                2.48212838        0.186621
                                1.4387019         0.395144
                                0.72090362        0.377883
                                0.3443302         0.134629
                                0.13162828        0.011074
                                0.05284968        -0.000426
                                0.02121951        0.000256
[INPUT] 1    0    [12   /1   ]  49.83779697       -2.9e-05
                                25.60370921       0.000502
                                10.40982442       -0.020934
                                7.71483683        0.047431
                                4.49868206        -0.020701
                                2.48212838        -0.057583
                                1.4387019         -0.106451
                                0.72090362        -0.140229
                                0.3443302         0.043257
                                0.13162828        0.438687
                                0.05284968        0.536785
                                0.02121951        0.12546
[INPUT] 1    0    [12   /1   ]  49.83779697       4.2e-05
                                25.60370921       -0.00212
                                10.40982442       0.123342
                                7.71483683        -0.318471
                                4.49868206        0.188642
                                2.48212838        0.726079
                                1.4387019         0.273545
                                0.72090362        -0.906715
                                0.3443302         -0.478781
                                0.13162828        0.723888
                                0.05284968        0.310191
                                0.02121951        -0.00813
[INPUT] 1    0    [12   /1   ]  49.83779697       0.000299
                                25.60370921       0.000309
                                10.40982442       -0.131422
                                7.71483683        0.419354
                                4.49868206        -0.585162
                                2.48212838        -0.699409
                                1.4387019         0.95299
                                0.72090362        0.532068
                                0.3443302         -0.999183
                                0.13162828        0.152364
                                0.05284968        0.334676
                                0.02121951        -0.023213
[INPUT] 1    0    [1    /1   ]  0.02121951           1
[INPUT] 1    0    [1    /1   ]  0.00851977           1
[INPUT] 2    0    [10   /1   ]  34.27504048       0.000678
                                16.12418185       -0.017858
                                9.59474528        0.107867
                                3.8690861         0.173949
                                1.82728072        0.26883
                                0.85799457        0.321303
                                0.38035078        0.300128
                                0.15533087        0.170792
                                0.06318167        0.035148
                                0.03734397        0.003549
[INPUT] 2    0    [10   /1   ]  34.27504048       0.000584
                                16.12418185       0.010634
                                9.59474528        -0.094271
                                3.8690861         -0.228668
                                1.82728072        -0.397823
                                0.85799457        -0.076182
                                0.38035078        0.313255
                                0.15533087        0.472762
                                0.06318167        0.196314
                                0.03734397        0.015996
[INPUT] 2    0    [10   /1   ]  34.27504048       0.003588
                                16.12418185       -0.007285
                                9.59474528        -0.060176
                                3.8690861         -0.418946
                                1.82728072        -0.38644
                                0.85799457        0.691971
                                0.38035078        0.444732
                                0.15533087        -0.454572
                                0.06318167        -0.39879
                                0.03734397        -0.019185
[INPUT] 2    0    [1    /1   ]  0.03734397           1
[INPUT] 2    0    [1    /1   ]  0.02207241           1
[INPUT] 3    0    [1    /1   ]  2.578583             1
[INPUT] 3    0    [1    /1   ]  0.725076             1
[INPUT] 3    0    [1    /1   ]  0.2038853            1
[INPUT] 4    0    [1    /1   ]  2.326339             1
[INPUT] 4    0    [1    /1   ]  0.65414707           1
nuclear repulsion = 25.9433202085229
number of shells = 35
number of NR pGTOs = 480
number of NR cGTOs = 133
basis = {'O': [[0, [57.663349, -0.002794], [35.726816, 0.023976], [22.453757, -0.115974], [14.732301, 0.288033], [9.739917, -0.274786], [5.042008, -0.083789], [2.157818, 0.063778], [1.002916, 0.410182], [0.421839, 0.504044], [0.173041, 0.172152]], [0, [1.849096, 1.0]], [0, [0.255434, 1.0]], [0, [0.141483, 1.0]], [1, [52.47406, -0.000522], [32.138432, 0.004857], [19.458579, -0.027749], [11.839344, 0.074258], [7.91003, 0.014369], [3.670858, 0.153479], [1.53966, 0.283685], [0.647119, 0.358201], [0.267853, 0.29559], [0.107198, 0.104889]], [1, [0.622175, 1.0]], [1, [0.193391, 1.0]], [1, [0.052779, 1.0]], [2, [2.324251, 1.0]], [2, [0.656935, 1.0]], [2, [0.2072, 1.0]], [3, [1.423472, 1.0]], [3, [0.48761, 1.0]]], 'V': [[0, [33.51168105, 0.006845], [15.38532624, -0.214557], [9.96227367, 1.392425], [8.05943355, -1.485929], [3.6960334, -0.026725], [1.49220279, 0.457681], [0.84622253, 0.506886], [0.43855031, 0.249453], [0.2102388, 0.007109], [0.1022422, 0.007055], [0.04832462, -0.000443], [0.02406855, 0.001278]], [0, [33.51168105, -0.001211], [15.38532624, 0.04697], [9.96227367, -0.329808], [8.05943355, 0.363635], [3.6960334, 0.005985], [1.49220279, -0.140857], [0.84622253, -0.203846], [0.43855031, -0.200776], [0.2102388, 0.022081], [0.1022422, 0.429765], [0.04832462, 0.534383], [0.02406855, 0.187984]], [0, [33.51168105, -0.007111], [15.38532624, 0.233807], [9.96227367, -1.69649], [8.05943355, 1.967562], [3.6960334, -0.221986], [1.49220279, -1.566848], [0.84622253, 0.314532], [0.43855031, 0.552762], [0.2102388, 0.87483], [0.1022422, 0.073061], [0.04832462, -0.50294], [0.02406855, -0.328304]], [0, [33.51168105, -0.013861], [15.38532624, 0.372746], [9.96227367, -2.690047], [8.05943355, 3.225629], [3.6960334, -0.892796], [1.49220279, -2.437526], [0.84622253, 2.347767], [0.43855031, 1.223514], [0.2102388, -1.131537], [0.1022422, -1.231287], [0.04832462, 0.586808], [0.02406855, 0.648032]], [0, [0.02406855, 1.0]], [0, [0.01198757, 1.0]], [1, [49.83779697, 0.000413], [25.60370921, -0.003442], [10.40982442, 0.097153], [7.71483683, -0.206888], [4.49868206, 0.083281], [2.48212838, 0.186621], [1.4387019, 0.395144], [0.72090362, 0.377883], [0.3443302, 0.134629], [0.13162828, 0.011074], [0.05284968, -0.000426], [0.02121951, 0.000256]], [1, [49.83779697, -2.9e-05], [25.60370921, 0.000502], [10.40982442, -0.020934], [7.71483683, 0.047431], [4.49868206, -0.020701], [2.48212838, -0.057583], [1.4387019, -0.106451], [0.72090362, -0.140229], [0.3443302, 0.043257], [0.13162828, 0.438687], [0.05284968, 0.536785], [0.02121951, 0.12546]], [1, [49.83779697, 4.2e-05], [25.60370921, -0.00212], [10.40982442, 0.123342], [7.71483683, -0.318471], [4.49868206, 0.188642], [2.48212838, 0.726079], [1.4387019, 0.273545], [0.72090362, -0.906715], [0.3443302, -0.478781], [0.13162828, 0.723888], [0.05284968, 0.310191], [0.02121951, -0.00813]], [1, [49.83779697, 0.000299], [25.60370921, 0.000309], [10.40982442, -0.131422], [7.71483683, 0.419354], [4.49868206, -0.585162], [2.48212838, -0.699409], [1.4387019, 0.95299], [0.72090362, 0.532068], [0.3443302, -0.999183], [0.13162828, 0.152364], [0.05284968, 0.334676], [0.02121951, -0.023213]], [1, [0.02121951, 1.0]], [1, [0.00851977, 1.0]], [2, [34.27504048, 0.000678], [16.12418185, -0.017858], [9.59474528, 0.107867], [3.8690861, 0.173949], [1.82728072, 0.26883], [0.85799457, 0.321303], [0.38035078, 0.300128], [0.15533087, 0.170792], [0.06318167, 0.035148], [0.03734397, 0.003549]], [2, [34.27504048, 0.000584], [16.12418185, 0.010634], [9.59474528, -0.094271], [3.8690861, -0.228668], [1.82728072, -0.397823], [0.85799457, -0.076182], [0.38035078, 0.313255], [0.15533087, 0.472762], [0.06318167, 0.196314], [0.03734397, 0.015996]], [2, [34.27504048, 0.003588], [16.12418185, -0.007285], [9.59474528, -0.060176], [3.8690861, -0.418946], [1.82728072, -0.38644], [0.85799457, 0.691971], [0.38035078, 0.444732], [0.15533087, -0.454572], [0.06318167, -0.39879], [0.03734397, -0.019185]], [2, [0.03734397, 1.0]], [2, [0.02207241, 1.0]], [3, [2.578583, 1.0]], [3, [0.725076, 1.0]], [3, [0.2038853, 1.0]], [4, [2.326339, 1.0]], [4, [0.65414707, 1.0]]]}
ecp = {'O': [2, [[-1, [[], [[10.27717748, 6.0]], [[15.99566749, 1232.50197768], [10.46901775, -696.47008301], [14.6384801, -2654.22657081], [12.57591181, 2101.67732548]], [[7.77739102, 61.66306486]]]], [0, [[], [], [[12.39426073, -656683.37638839], [12.38126171, 657858.57667068], [8.57671033, 511.50098405], [9.89256508, -2579.54665641], [28.05641604, -57.68129584], [17.24753607, 970.30940152]], []]], [1, [[], [], [[14.78918914, -363027.24258186], [14.82014018, 361852.52314043], [22.89622221, -1300.20069256], [8.51331893, -181.96869573], [11.48609758, 2194.87589959], [27.22017524, 451.19906206]], []]]]], 'V': [10, [[-1, [[], [[8.85341849, 13.0]], [[14.12393489, 1867.96836466], [10.01469125, -417.2185296], [16.87739786, -6735.41034163], [17.42661229, 5248.9519915]], [[8.14766139, 115.09444037]]]], [0, [[], [], [[10.17161428, 8429.89768085], [6.62108601, -4738.0869454], [6.4407206, 3874.69004628], [11.26222343, -9817.80452096], [19.82459033, -286.16022228], [14.35299938, 2571.80634504]], []]], [1, [[], [], [[10.25117807, 40641.17869487], [10.49106006, -41559.00487832], [13.7869188, 3357.33248976], [16.29479305, -896.47755921], [7.79003518, -1904.45864373], [6.62830213, 382.3757783]], []]], [2, [[], [], [[8.601477, 4615.05527413], [10.66674565, -3671.60281242], [15.19026557, 4480.50015686], [8.06189603, -2591.12632756], [19.82232597, 2587.18683714], [18.22318105, -5431.92186158]], []]]]]}
CPU time:         3.56


******** <class 'pyscf.scf.rohf.ROHF'> flags ********
method = ROHF
initial guess = minao
damping factor = 0
level shift factor = 1000.0
DIIS = <class 'pyscf.scf.diis.CDIIS'>
DIIS start cycle = 1
DIIS space = 8
SCF tol = 1e-09
SCF gradient tol = None
max. SCF cycles = 50
direct_scf = True
direct_scf_tol = 1e-13
chkfile to save SCF result = /projects/bamu3429/BENCHMARK/fresh_atoms/MRPT/vtz/monoxides/VO/tmpDakiNH
max_memory 4000 MB (current use 168 MB)
num. doubly occ = 8  num. singly occ = 3
Set gradient conv threshold to 3.16228e-05
init E= -86.4053331332697
  HOMO = 499.887903179691  LUMO = 1000.01330122585
cycle= 1 E= -86.4053331332697  delta_E= -2.84e-14  |g|= 6.18e-06  |ddm|= 3.12e-08
  HOMO = -0.112096821408724  LUMO = 0.0133012258475096
Extra cycle  E= -86.4053331333039  delta_E= -3.42e-11  |g|= 1.52e-06  |ddm|= 1.61e-05
converged SCF energy = -86.4053331333039
**** MO energy ****
                Roothaan           | alpha              | beta
MO #1   energy= -3.26467287619894  | -3.34502379089136  | -3.18432200392116  occ= 2
MO #2   energy= -2.10084740429715  | -2.12895158293751  | -2.07274322153678  occ= 2
MO #3   energy= -2.06707256913704  | -2.19729078907689  | -1.93685434919719  occ= 2
MO #4   energy= -2.06707256913704  | -2.19729078907689  | -1.93685434919719  occ= 2
MO #5   energy= -1.17520755791626  | -1.17860371522053  | -1.17181140623665  occ= 2
MO #6   energy= -0.477776963172068 | -0.488829498800113 | -0.466724672889385 occ= 2
MO #7   energy= -0.454098974845445 | -0.45899065469637  | -0.449207294994528 occ= 2
MO #8   energy= -0.454098974845442 | -0.458990654696365 | -0.449207294994523 occ= 2
MO #9   energy= -0.126209813805823 | -0.285150538625463 | 0.0327308646264472 occ= 1
MO #10  energy= -0.112096821409315 | -0.490692404175783 | 0.266498643142203  occ= 1
MO #11  energy= -0.112096821408724 | -0.490692404182977 | 0.266498643143513  occ= 1
MO #12  energy= 0.0133012258475096 | 0.00930029454848957 | 0.0173021571465304 occ= 0
MO #13  energy= 0.013301225847511  | 0.00930029454848933 | 0.0173021571465301 occ= 0
MO #14  energy= 0.0137115856734013 | 0.0113573103053852 | 0.0160659237096587 occ= 0
MO #15  energy= 0.0285271675811031 | 0.0277249416915997 | 0.029329393990362  occ= 0
MO #16  energy= 0.0418221713114624 | 0.028697703530186  | 0.054946639092739  occ= 0
MO #17  energy= 0.0418221713114636 | 0.028697703530188  | 0.0549466390927409 occ= 0
MO #18  energy= 0.0482589781080268 | 0.0367454222598087 | 0.0597726011872738 occ= 0
MO #19  energy= 0.0611938753265257 | 0.0606929236912621 | 0.0616948469465211 occ= 0
MO #20  energy= 0.061193875326694  | 0.0606929236913102 | 0.0616948469461781 occ= 0
MO #21  energy= 0.068418866021478  | 0.0669484084346534 | 0.0698893236083038 occ= 0
MO #22  energy= 0.06841886602148   | 0.0669484084346537 | 0.0698893236083048 occ= 0
MO #23  energy= 0.0772302381813106 | 0.0709678427437509 | 0.0834926877548659 occ= 0
MO #24  energy= 0.120826491372118  | 0.107945607256416  | 0.133707371471413  occ= 0
MO #25  energy= 0.121301946640852  | 0.105983466869234  | 0.13662042641247   occ= 0
MO #26  energy= 0.121301946640853  | 0.105983466869234  | 0.136620426412472  occ= 0
MO #27  energy= 0.138371125355206  | 0.129701294568333  | 0.14704103590805   occ= 0
MO #28  energy= 0.177178558952304  | 0.170120696539556  | 0.184236497491361  occ= 0
MO #29  energy= 0.177178558953598  | 0.170120696539913  | 0.184236497490537  occ= 0
MO #30  energy= 0.197435251018717  | 0.185453475629614  | 0.209417026407819  occ= 0
MO #31  energy= 0.197435251018719  | 0.185453475629617  | 0.209417026407822  occ= 0
MO #32  energy= 0.204821265359023  | 0.198405853502857  | 0.211236678241036  occ= 0
MO #33  energy= 0.237574462020445  | 0.217606471068611  | 0.257542452972282  occ= 0
MO #34  energy= 0.237574462020448  | 0.217606471068614  | 0.257542452972282  occ= 0
MO #35  energy= 0.276790154259183  | 0.269731918821534  | 0.28384838969683   occ= 0
MO #36  energy= 0.276790154259188  | 0.269731918821546  | 0.283848389696831  occ= 0
MO #37  energy= 0.287186635302711  | 0.281093169705328  | 0.293280131358903  occ= 0
MO #38  energy= 0.414816299467863  | 0.403125971080121  | 0.426506638073944  occ= 0
MO #39  energy= 0.649701179048596  | 0.633421079230402  | 0.665981301703606  occ= 0
MO #40  energy= 0.665537207693089  | 0.653072556646799  | 0.678001866363494  occ= 0
MO #41  energy= 0.665537207693732  | 0.653072556647989  | 0.678001866363018  occ= 0
MO #42  energy= 0.70022894514209   | 0.661036504044659  | 0.739421384615455  occ= 0
MO #43  energy= 0.700228945144102  | 0.661036504044531  | 0.739421384617395  occ= 0
MO #44  energy= 0.703530786208463  | 0.685595288582875  | 0.721466283834051  occ= 0
MO #45  energy= 0.703530786208469  | 0.685595288582878  | 0.721466283834057  occ= 0
MO #46  energy= 0.732505248575053  | 0.711818629669843  | 0.753191877255599  occ= 0
MO #47  energy= 0.734515041063756  | 0.712369774052174  | 0.756660308075337  occ= 0
MO #48  energy= 0.734515041063757  | 0.712369774052176  | 0.75666030807534   occ= 0
MO #49  energy= 0.771892619415842  | 0.759504450562464  | 0.78428078873496   occ= 0
MO #50  energy= 0.852310144157111  | 0.848329762900932  | 0.856290525413292  occ= 0
MO #51  energy= 0.852310144157112  | 0.848329762900931  | 0.856290525413292  occ= 0
MO #52  energy= 0.917667312716993  | 0.912760003174348  | 0.922574624091382  occ= 0
MO #53  energy= 0.955697604616726  | 0.945011185823793  | 0.966384020620705  occ= 0
MO #54  energy= 0.955697604616875  | 0.945011185823659  | 0.966384020620936  occ= 0
MO #55  energy= 0.974711214410836  | 0.970821937356895  | 0.978600491464774  occ= 0
MO #56  energy= 0.974711214410859  | 0.970821937356922  | 0.978600491464798  occ= 0
MO #57  energy= 1.01065236932546   | 0.991980744385654  | 1.02932399426527   occ= 0
MO #58  energy= 1.01065236932547   | 0.991980744385645  | 1.02932399426529   occ= 0
MO #59  energy= 1.30500764488062   | 1.29842678768637   | 1.31158850208964   occ= 0
MO #60  energy= 1.65985320210048   | 1.6525641913485    | 1.66714221175102   occ= 0
MO #61  energy= 1.76429635479872   | 1.745296762633     | 1.78329594696443   occ= 0
MO #62  energy= 1.76429635479872   | 1.745296762633     | 1.78329594696444   occ= 0
MO #63  energy= 2.06695286873661   | 2.06001322404809   | 2.0738925118741    occ= 0
MO #64  energy= 2.06695286873663   | 2.06001322404804   | 2.07389251187413   occ= 0
MO #65  energy= 2.07690623086738   | 2.07522401984781   | 2.07858844188694   occ= 0
MO #66  energy= 2.07690623086738   | 2.07522401984781   | 2.07858844188694   occ= 0
MO #67  energy= 2.14977070229118   | 2.13827022989335   | 2.16127117468901   occ= 0
MO #68  energy= 2.14977070229118   | 2.13827022989335   | 2.16127117468902   occ= 0
MO #69  energy= 2.21166724383388   | 2.20779930590825   | 2.21553518162909   occ= 0
MO #70  energy= 2.35907294009093   | 2.35690910928354   | 2.36123677078411   occ= 0
MO #71  energy= 2.35907294009094   | 2.35690910928357   | 2.3612367707841    occ= 0
MO #72  energy= 2.3795205193793    | 2.36687802312712   | 2.3921630156091    occ= 0
MO #73  energy= 2.4505230070138    | 2.43788269269604   | 2.46316332133157   occ= 0
MO #74  energy= 2.45052300701381   | 2.43788269269604   | 2.46316332133158   occ= 0
MO #75  energy= 2.46678219865815   | 2.39557931086741   | 2.53798508644888   occ= 0
MO #76  energy= 2.46678219865815   | 2.39557931086741   | 2.53798508644889   occ= 0
MO #77  energy= 2.5867794468585    | 2.55905071511854   | 2.61450818090451   occ= 0
MO #78  energy= 2.5867794468587    | 2.55905071511874   | 2.61450818090463   occ= 0
MO #79  energy= 2.60933127045607   | 2.59793642391659   | 2.62072611723618   occ= 0
MO #80  energy= 2.68717283712238   | 2.67706888608643   | 2.69727678900266   occ= 0
MO #81  energy= 2.70177720850489   | 2.68697840140005   | 2.71657601560972   occ= 0
MO #82  energy= 2.7017772085049    | 2.68697840140006   | 2.71657601560973   occ= 0
MO #83  energy= 2.97111670267017   | 2.9401540332314    | 3.00207937210893   occ= 0
MO #84  energy= 2.97111670267018   | 2.94015403323141   | 3.00207937210893   occ= 0
MO #85  energy= 3.01382458135045   | 2.94760707637377   | 3.08004210474275   occ= 0
MO #86  energy= 3.0138245813513    | 2.94760707637582   | 3.08004210474257   occ= 0
MO #87  energy= 3.05224270716651   | 3.0343738542217    | 3.0701115601113    occ= 0
MO #88  energy= 3.05224270716651   | 3.03437385422171   | 3.07011156011131   occ= 0
MO #89  energy= 3.331027824482     | 3.31946610279279   | 3.3425895461712    occ= 0
MO #90  energy= 3.33102782448201   | 3.3194661027928    | 3.34258954617121   occ= 0
MO #91  energy= 3.37411630694008   | 3.36398850491605   | 3.38424410897247   occ= 0
MO #92  energy= 3.44811371618463   | 3.43691550177476   | 3.45931192974806   occ= 0
MO #93  energy= 3.44811371618478   | 3.4369155017747    | 3.45931192974812   occ= 0
MO #94  energy= 3.52493429718335   | 3.51805883986213   | 3.53180975450458   occ= 0
MO #95  energy= 3.52493429718335   | 3.51805883986212   | 3.53180975450458   occ= 0
MO #96  energy= 3.62891376924937   | 3.62111949685027   | 3.63670803983701   occ= 0
MO #97  energy= 3.7236098690908    | 3.69575233843633   | 3.75146740091202   occ= 0
MO #98  energy= 4.25689510204514   | 4.25105433486741   | 4.26273586922286   occ= 0
MO #99  energy= 4.25689510204517   | 4.25105433486744   | 4.26273586922289   occ= 0
MO #100 energy= 5.40866235439673   | 5.40502718485979   | 5.4122975239503    occ= 0
MO #101 energy= 6.14609937322146   | 6.13838623663244   | 6.15381250986627   occ= 0
MO #102 energy= 6.50433454335858   | 6.50420507986162   | 6.50446400685555   occ= 0
MO #103 energy= 6.50433454335858   | 6.50420507986162   | 6.50446400685555   occ= 0
MO #104 energy= 6.59749338365497   | 6.59724314097336   | 6.59774362633618   occ= 0
MO #105 energy= 6.59749338365497   | 6.59724314097337   | 6.59774362633618   occ= 0
MO #106 energy= 6.61224828720224   | 6.59791183698355   | 6.62658473742094   occ= 0
MO #107 energy= 6.61224828720225   | 6.59791183698356   | 6.62658473742095   occ= 0
MO #108 energy= 6.95049103673446   | 6.9325683895711    | 6.96841368389783   occ= 0
MO #109 energy= 6.95049103673446   | 6.93256838957109   | 6.96841368389783   occ= 0
MO #110 energy= 7.09170810293298   | 7.09098432477621   | 7.09243188109213   occ= 0
MO #111 energy= 7.09170810293298   | 7.09098432477621   | 7.09243188109212   occ= 0
MO #112 energy= 7.21417876687545   | 7.19875846716159   | 7.22959906653894   occ= 0
MO #113 energy= 7.30643533952036   | 7.30002980409392   | 7.31284087494679   occ= 0
MO #114 energy= 7.30643533952036   | 7.30002980409391   | 7.31284087494678   occ= 0
MO #115 energy= 7.67209825364739   | 7.66957793442556   | 7.67461857281424   occ= 0
MO #116 energy= 7.80440524066263   | 7.72170226738429   | 7.88710821394096   occ= 0
MO #117 energy= 7.80440524066263   | 7.72170226738428   | 7.88710821394096   occ= 0
MO #118 energy= 7.84626114243539   | 7.80867343988881   | 7.88384884499061   occ= 0
MO #119 energy= 7.84626114243544   | 7.80867343988843   | 7.88384884499105   occ= 0
MO #120 energy= 8.25498093345297   | 8.23325088231306   | 8.27671098459288   occ= 0
MO #121 energy= 8.25498093345297   | 8.23325088231306   | 8.27671098459289   occ= 0
MO #122 energy= 8.687483839845     | 8.67232926883626   | 8.70263841089627   occ= 0
MO #123 energy= 9.0634100028566    | 9.05243297323237   | 9.07438703260831   occ= 0
MO #124 energy= 10.3124335157656   | 10.2802844562705   | 10.3445825752607   occ= 0
MO #125 energy= 10.3124335157656   | 10.2802844562705   | 10.3445825752607   occ= 0
MO #126 energy= 10.3203009801581   | 10.2657428145592   | 10.3748591457569   occ= 0
MO #127 energy= 10.3203009801581   | 10.2657428145592   | 10.374859145757    occ= 0
MO #128 energy= 10.4077366205208   | 10.3855965219934   | 10.4298767197274   occ= 0
MO #129 energy= 10.4077366205208   | 10.3855965219933   | 10.4298767197278   occ= 0
MO #130 energy= 10.4838598306058   | 10.4650814577537   | 10.5026382034579   occ= 0
MO #131 energy= 10.4838598306058   | 10.4650814577537   | 10.5026382034579   occ= 0
MO #132 energy= 10.5621078874642   | 10.5448416874436   | 10.5793740868784   occ= 0
MO #133 energy= 13.5904006202406   | 13.5898073926739   | 13.5909938478027   occ= 0
 ** Mulliken pop on meta-lowdin orthogonal AOs  **
 ** Mulliken pop  **
pop of  0V 3s        1.99960
pop of  0V 4s        0.87657
pop of  0V 5s        0.00609
pop of  0V 6s        0.00298
pop of  0V 7s        0.00246
pop of  0V 8s        0.00150
pop of  0V 3px       1.99947
pop of  0V 3py       1.99947
pop of  0V 3pz       1.99661
pop of  0V 4px       0.00729
pop of  0V 4py       0.00729
pop of  0V 4pz       0.05215
pop of  0V 5px       0.00023
pop of  0V 5py       0.00023
pop of  0V 5pz       0.00602
pop of  0V 6px       0.00002
pop of  0V 6py       0.00002
pop of  0V 6pz       0.00126
pop of  0V 7px       0.00023
pop of  0V 7py       0.00023
pop of  0V 7pz       0.00922
pop of  0V 8px       0.00003
pop of  0V 8py       0.00003
pop of  0V 8pz       0.00074
pop of  0V 3dxy      0.99711
pop of  0V 3dyz      0.28841
pop of  0V 3dz^2     0.60443
pop of  0V 3dxz      0.28841
pop of  0V 3dx2-y2    0.99711
pop of  0V 4dxy      0.00193
pop of  0V 4dyz      0.00112
pop of  0V 4dz^2     0.00401
pop of  0V 4dxz      0.00112
pop of  0V 4dx2-y2    0.00193
pop of  0V 5dxy      0.00007
pop of  0V 5dyz      0.00008
pop of  0V 5dz^2     0.00182
pop of  0V 5dxz      0.00008
pop of  0V 5dx2-y2    0.00007
pop of  0V 6dxy      0.00043
pop of  0V 6dyz      0.00003
pop of  0V 6dz^2     0.00071
pop of  0V 6dxz      0.00003
pop of  0V 6dx2-y2    0.00043
pop of  0V 7dxy      0.00004
pop of  0V 7dyz      0.00000
pop of  0V 7dz^2     0.00015
pop of  0V 7dxz      0.00000
pop of  0V 7dx2-y2    0.00004
pop of  0V 4fy^3     0.00000
pop of  0V 4fxyz     0.00000
pop of  0V 4fyz^2    0.00009
pop of  0V 4fz^3     0.00022
pop of  0V 4fxz^2    0.00009
pop of  0V 4fzx^2    0.00000
pop of  0V 4fx^3     0.00000
pop of  0V 5fy^3     0.00000
pop of  0V 5fxyz     0.00006
pop of  0V 5fyz^2    0.00099
pop of  0V 5fz^3     0.00162
pop of  0V 5fxz^2    0.00099
pop of  0V 5fzx^2    0.00006
pop of  0V 5fx^3     0.00000
pop of  0V 6fy^3     0.00000
pop of  0V 6fxyz     0.00012
pop of  0V 6fyz^2    0.00042
pop of  0V 6fz^3     0.00364
pop of  0V 6fxz^2    0.00042
pop of  0V 6fzx^2    0.00012
pop of  0V 6fx^3     0.00000
pop of  0V 5g-4      0.00000
pop of  0V 5g-3      0.00000
pop of  0V 5g-2      0.00000
pop of  0V 5g-1      0.00002
pop of  0V 5g 0      0.00003
pop of  0V 5g 1      0.00002
pop of  0V 5g 2      0.00000
pop of  0V 5g 3      0.00000
pop of  0V 5g 4      0.00000
pop of  0V 6g-4      0.00000
pop of  0V 6g-3      0.00000
pop of  0V 6g-2      0.00000
pop of  0V 6g-1      0.00010
pop of  0V 6g 0      0.00059
pop of  0V 6g 1      0.00010
pop of  0V 6g 2      0.00000
pop of  0V 6g 3      0.00000
pop of  0V 6g 4      0.00000
pop of  1O 2s        1.86572
pop of  1O 3s        0.00152
pop of  1O 4s        0.00302
pop of  1O 5s        0.01113
pop of  1O 2px       1.68782
pop of  1O 2py       1.68782
pop of  1O 2pz       1.53382
pop of  1O 3px       0.00002
pop of  1O 3py       0.00002
pop of  1O 3pz       0.00044
pop of  1O 4px       0.00405
pop of  1O 4py       0.00405
pop of  1O 4pz       0.00068
pop of  1O 5px       0.00206
pop of  1O 5py       0.00206
pop of  1O 5pz       0.00454
pop of  1O 3dxy      0.00000
pop of  1O 3dyz      0.00039
pop of  1O 3dz^2     0.00056
pop of  1O 3dxz      0.00039
pop of  1O 3dx2-y2    0.00000
pop of  1O 4dxy      0.00000
pop of  1O 4dyz      0.00297
pop of  1O 4dz^2     0.00283
pop of  1O 4dxz      0.00297
pop of  1O 4dx2-y2    0.00000
pop of  1O 5dxy      0.00018
pop of  1O 5dyz      0.00390
pop of  1O 5dz^2     0.00296
pop of  1O 5dxz      0.00390
pop of  1O 5dx2-y2    0.00018
pop of  1O 4fy^3     0.00000
pop of  1O 4fxyz     0.00000
pop of  1O 4fyz^2    0.00009
pop of  1O 4fz^3     0.00013
pop of  1O 4fxz^2    0.00009
pop of  1O 4fzx^2    0.00000
pop of  1O 4fx^3     0.00000
pop of  1O 5fy^3     0.00000
pop of  1O 5fxyz     0.00004
pop of  1O 5fyz^2    0.00018
pop of  1O 5fz^3     0.00022
pop of  1O 5fxz^2    0.00018
pop of  1O 5fzx^2    0.00004
pop of  1O 5fx^3     0.00000
 ** Mulliken atomic charges  **
charge of  0V =      0.83100
charge of  1O =     -0.83100

******** <class 'pyscf.mcscf.mc1step.CASSCF'> flags ********
CAS (6e+3e, 9o), ncore = 5, nvir = 119
max_cycle_macro = 50
max_cycle_micro = 4
conv_tol = 1e-07
conv_tol_grad = None
orbital rotation max_stepsize = 0.02
augmented hessian ah_max_cycle = 30
augmented hessian ah_conv_tol = 1e-12
augmented hessian ah_linear dependence = 1e-14
augmented hessian ah_level shift = 0
augmented hessian ah_start_tol = 2.5
augmented hessian ah_start_cycle = 3
augmented hessian ah_grad_trust_region = 3
kf_trust_region = 3
kf_interval = 4
ci_response_space = 4
ci_grad_trust_region = 3
with_dep4 0
natorb = False
canonicalization = True
chkfile = ./scratch/154304/tmpTbFjW9
max_memory 4000 MB (current use 590 MB)
internal_rotation = False

******** SHCI flags ********
executable             = /home/bamu3429/softwares/dice/Dice
mpiprefix              = mpirun -np 28
scratchDirectory       = ./scratch/154304
integralFile           = ./FCIDUMP
configFile             = ./input.dat
outputFile             = ./output.dat
maxIter                = 6
sweep_iter             = []
sweep_epsilon          = []
nPTiter                = 0
Stochastic             = True
fullrestart            = False
restart                = False
num_thrds              = 12
memory                 = None

CASCI E = -86.4054015704059  S^2 = 3.7500000
Set conv_tol_grad to 0.000316228
macro iter 1 (7 JK  2 micro), CASSCF E = -86.4056905075361  dE = -0.00028893713  S^2 = 3.7500000
               |grad[o]|=0.00065  |grad[c]|= None  |ddm|=0.00958
macro iter 2 (21 JK  4 micro), CASSCF E = -86.4210684211635  dE = -0.015377914  S^2 = 3.7500000
               |grad[o]|=0.00216  |grad[c]|= None  |ddm|=0.043
macro iter 3 (21 JK  4 micro), CASSCF E = -86.4496918880656  dE = -0.028623467  S^2 = 3.7500000
               |grad[o]|=0.0535  |grad[c]|= None  |ddm|=0.084
macro iter 4 (21 JK  4 micro), CASSCF E = -86.495099681364  dE = -0.045407793  S^2 = 3.7500000
               |grad[o]|=0.0743  |grad[c]|= None  |ddm|=0.0464
macro iter 5 (21 JK  4 micro), CASSCF E = -86.5436318054616  dE = -0.048532124  S^2 = 3.7500000
               |grad[o]|=0.0838  |grad[c]|= None  |ddm|=0.0466
macro iter 6 (18 JK  4 micro), CASSCF E = -86.5601227217091  dE = -0.016490916  S^2 = 3.7500000
               |grad[o]|=0.0627  |grad[c]|= None  |ddm|=0.0555
macro iter 7 (12 JK  4 micro), CASSCF E = -86.5602096007983  dE = -8.6879089e-05  S^2 = 3.7500000
               |grad[o]|=0.00702  |grad[c]|= None  |ddm|=0.0124
macro iter 8 (10 JK  4 micro), CASSCF E = -86.5602105932572  dE = -9.9245896e-07  S^2 = 3.7500000
               |grad[o]|=0.000653  |grad[c]|= None  |ddm|=0.00192
macro iter 9 (3 JK  1 micro), CASSCF E = -86.5602106072712  dE = -1.4013978e-08  S^2 = 3.7500000
               |grad[o]|=9.71e-05  |grad[c]|= None  |ddm|=0.00011
1-step CASSCF converged in 9 macro (134 JK 31 micro) steps
CASSCF canonicalization
CASSCF energy = -86.5602106072712


--------------------------------------------------
                 ICMPSPT CALCULATION              
--------------------------------------------------

Perturbation type: MRLCC
With fully internally contracted scheme
With third order correction

Preparing necessary RDMs
......production of RDMs took      37.95 sec
Reading binary 4RDM from DICE
......reading the RDM took         27.87 sec

(GOOD) Trace 4RDM:   3024.0 =    9*    8*    7*    6
(GOOD) Trace 3RDM:    504.0 =    9*    8*    7
(GOOD) Trace 2RDM:     72.0 =    9*    8
(GOOD) Trace 1RDM:      9.0 =    9

Producing the integrals
......production of INT took     160.01 sec

Energy_core =  -92.4659780624
Energy      =  -86.5602106073

WARNING: Have to use natural orbitals from CAASCF
         offdiagonal elements: 0.565117294288

Basic ingredients written to int/
......savings of INGREDIENTS took      41.57 sec

Second-order:
perturber CCVV --        -0.124847908
perturber CCAV --        -0.069976380
perturber ACVV --        -0.153532879
perturber CCAA --        -0.038812099
perturber AAVV --        -0.135003628
perturber CAAV --        -0.137551762
perturber AAAV --        -0.033232191
perturber AAAC --        -0.004797094
Total:                   -0.697753942

Third-order:              0.001909132

Total PT       --        -0.695844810

