 &FCI NORB=6 ,NELEC=6 ,MS2=6,
  ORBSYM=1,1,1,1,1,1,
  ISYM=1,
 &END
  8.693470336013e-01    1  1  1  1
  3.755647426110e-02    2  1  2  1
  7.942340850791e-01    2  2  1  1
  8.693470336013e-01    2  2  2  2
 -3.985609181228e-03    3  1  2  1
 -1.916872853986e-03    3  1  2  2
  2.910939860574e-02    3  1  3  1
  7.971218362452e-03    3  2  1  1
  9.584364269930e-04    3  2  2  1
 -1.572812817995e-03    3  2  3  1
  3.082846204907e-02    3  2  3  2
  8.111282363898e-01    3  3  1  1
  3.145625635990e-03    3  3  2  1
  8.076901095031e-01    3  3  2  2
  8.693470336012e-01    3  3  3  3
  2.662339300610e-03    4  1  2  1
 -3.577558405979e-04    4  1  2  2
  6.418786475593e-03    4  1  3  1
 -2.913747171898e-03    4  1  3  2
 -1.257572443504e-02    4  1  3  3
  3.407864562881e-02    4  1  4  1
 -5.324678601221e-03    4  2  1  1
  1.788779202990e-04    4  2  2  1
  4.090409975864e-03    4  2  3  1
 -5.418195082257e-03    4  2  3  2
  8.783813169417e-03    4  2  3  3
 -2.022039763595e-03    4  2  4  1
  2.646544196002e-02    4  2  4  2
 -1.283757295119e-02    4  3  1  1
 -1.176662803966e-03    4  3  2  1
  1.083639016451e-02    4  3  2  2
  6.287862217519e-03    4  3  3  1
 -4.391906584708e-03    4  3  3  2
  4.192844837397e-03    4  3  4  1
  5.323604728158e-03    4  3  4  2
  3.114790283238e-02    4  3  4  3
  8.011897423436e-01    4  4  1  1
  4.044079527189e-03    4  4  2  1
  8.164161496812e-01    4  4  2  2
 -8.385689674793e-03    4  4  3  1
 -1.064720945632e-02    4  4  3  2
  8.070512279365e-01    4  4  3  3
  8.693470336012e-01    4  4  4  4
  2.612834441926e-04    5  1  2  1
  5.499230134715e-03    5  1  2  2
 -6.898940757523e-04    5  1  3  1
  7.577108526191e-03    5  1  3  2
  1.056892752681e-03    5  1  3  3
 -2.899013376265e-03    5  1  4  1
 -2.207726206671e-03    5  1  4  2
  9.191955674124e-04    5  1  4  3
 -6.556122887396e-03    5  1  4  4
  2.537969839577e-02    5  1  5  1
 -5.225668883844e-04    5  2  1  1
 -2.749615067357e-03    5  2  2  1
  6.199238070656e-03    5  2  3  1
  2.772617405371e-03    5  2  3  2
  1.164413029524e-02    5  2  3  3
 -5.155144930225e-03    5  2  4  1
  6.289198915533e-03    5  2  4  2
  4.578406611061e-03    5  2  4  3
 -1.112156340685e-02    5  2  4  4
  3.594852581590e-03    5  2  5  1
  3.127383862123e-02    5  2  5  2
  1.379788151505e-03    5  3  1  1
 -1.377634659685e-02    5  3  2  1
 -5.545234810742e-03    5  3  2  2
 -5.284463763407e-04    5  3  3  1
 -5.822065147620e-03    5  3  3  2
 -4.837580438157e-03    5  3  4  1
  1.054934543797e-03    5  3  4  2
 -3.390185539268e-03    5  3  4  3
  4.165446659239e-03    5  3  4  4
 -5.151281264390e-03    5  3  5  1
 -1.337995546930e-03    5  3  5  2
  3.503845340422e-02    5  3  5  3
  5.798026752529e-03    5  4  1  1
  7.362871136896e-03    5  4  2  1
 -1.257839783106e-02    5  4  2  2
  3.918384870744e-03    5  4  3  1
 -5.633341154858e-03    5  4  3  2
  6.780371078536e-03    5  4  3  3
  3.278061443698e-03    5  4  4  1
  5.560781703427e-03    5  4  4  2
 -2.082723329619e-03    5  4  4  3
 -6.466740137818e-03    5  4  5  1
  1.729567284098e-03    5  4  5  2
 -1.000591393336e-03    5  4  5  3
  3.443222647020e-02    5  4  5  4
  8.185876368097e-01    5  5  1  1
 -7.189705163180e-03    5  5  2  1
  8.067993563588e-01    5  5  2  2
  1.030256252878e-02    5  5  3  1
  2.675991093853e-03    5  5  3  2
  7.992701267928e-01    5  5  3  3
  1.293348027564e-02    5  5  4  1
 -3.459134568196e-03    5  5  4  2
  2.001182786671e-03    5  5  4  3
  8.004825806608e-01    5  5  4  4
  8.693470336012e-01    5  5  5  5
  1.326203816061e-03    6  1  1  1
 -2.865768716752e-04    6  1  2  1
 -1.134342879064e-03    6  1  2  2
  1.293498894544e-04    6  1  3  1
  4.867156520705e-04    6  1  3  2
 -7.504600376075e-05    6  1  3  3
  2.277891006899e-05    6  1  4  1
 -3.241173065571e-04    6  1  4  2
 -7.764772460120e-04    6  1  4  3
 -7.686607125255e-04    6  1  4  4
 -1.670268125582e-05    6  1  5  1
  3.536376471043e-05    6  1  5  2
  2.794982624148e-04    6  1  5  3
  3.081841753291e-04    6  1  5  4
  6.518457792725e-04    6  1  5  5
  9.541571549615e-03    6  1  6  1
 -2.865768716747e-04    6  2  1  1
 -1.134342879061e-03    6  2  2  1
  1.350566642062e-04    6  2  2  2
  4.867156520706e-04    6  2  3  1
 -1.570457709289e-04    6  2  3  2
  3.176310925796e-04    6  2  3  3
 -3.241173065572e-04    6  2  4  1
  3.631987607849e-04    6  2  4  2
  4.083319640180e-04    6  2  4  3
 -4.542763344236e-04    6  2  4  4
  3.536376471048e-05    6  2  5  1
  6.300169311268e-04    6  2  5  2
  7.537725496347e-04    6  2  5  3
 -2.977589215143e-04    6  2  5  4
  2.881654493154e-04    6  2  5  5
  9.541571549615e-03    6  2  6  2
  1.293498894543e-04    6  3  1  1
  4.867156520706e-04    6  3  2  1
 -1.570457709290e-04    6  3  2  2
 -7.504600375764e-05    6  3  3  1
  3.176310925790e-04    6  3  3  2
  1.265943316111e-03    6  3  3  3
 -7.764772460123e-04    6  3  4  1
  4.083319640180e-04    6  3  4  2
 -7.239500417812e-05    6  3  4  3
 -4.818483289634e-04    6  3  4  4
  2.794982624150e-04    6  3  5  1
  7.537725496347e-04    6  3  5  2
 -3.796013533226e-04    6  3  5  3
  3.456412396025e-04    6  3  5  4
 -7.563991056733e-04    6  3  5  5
  9.541571549616e-03    6  3  6  3
  2.277891006896e-05    6  4  1  1
 -3.241173065572e-04    6  4  2  1
  3.631987607849e-04    6  4  2  2
 -7.764772460123e-04    6  4  3  1
  4.083319640181e-04    6  4  3  2
 -7.239500417798e-05    6  4  3  3
 -7.686607125226e-04    6  4  4  1
 -4.542763344242e-04    6  4  4  2
 -4.818483289634e-04    6  4  4  3
  3.126472340201e-04    6  4  4  4
  3.081841753292e-04    6  4  5  1
 -2.977589215143e-04    6  4  5  2
  3.456412396026e-04    6  4  5  3
 -8.551840347402e-04    6  4  5  4
 -6.262299006961e-04    6  4  5  5
  9.541571549616e-03    6  4  6  4
 -1.670268125561e-05    6  5  1  1
  3.536376471048e-05    6  5  2  1
  6.300169311270e-04    6  5  2  2
  2.794982624150e-04    6  5  3  1
  7.537725496347e-04    6  5  3  2
 -3.796013533225e-04    6  5  3  3
  3.081841753292e-04    6  5  4  1
 -2.977589215143e-04    6  5  4  2
  3.456412396026e-04    6  5  4  3
 -8.551840347399e-04    6  5  4  4
  6.518457792759e-04    6  5  5  1
  2.881654493149e-04    6  5  5  2
 -7.563991056731e-04    6  5  5  3
 -6.262299006959e-04    6  5  5  4
  6.214711381921e-04    6  5  5  5
  9.541571549616e-03    6  5  6  5
  3.933794577356e-01    6  6  1  1
  3.933794577356e-01    6  6  2  2
  3.933794577356e-01    6  6  3  3
  3.933794577356e-01    6  6  4  4
  3.933794577356e-01    6  6  5  5
  3.130434704010e-01    6  6  6  6
 -4.408788329460e+00    1  1  0  0
 -4.408788329460e+00    2  2  0  0
 -4.408788329460e+00    3  3  0  0
 -4.408788329460e+00    4  4  0  0
 -4.408788329460e+00    5  5  0  0
 -2.469617235087e+00    6  6  0  0
    -88.452603989005   0  0  0  0
