#INFO: **** input file is /projects/bamu3429/BENCHMARK/fresh_atoms/MRPT/vqz/atoms/Mn_1/mrpt.py ****
import json
from pyscf import gto,scf,mcscf, fci, lo, ci, cc
from pyscf.scf import ROHF, UHF,ROKS
import numpy as np
import pandas as pd

# THIS IS WERE IT STARTS ====================================

df=json.load(open("../../../trail.json"))

spins={'Sc':1, 'Ti':2, 'V':3, 'Cr':6, 'Mn':5, 'Fe':4, 'Cu':1}

nd={'Sc':(1,0), 'Ti':(2,0), 'V':(3,0), 'Cr':(5,0), 'Mn':(5,0), 'Fe':(5,1), 'Cu':(5,5)}

cas={'Sc':3, 'Ti':4, 'V':5, 'Cr':6, 'Mn':7, 'Fe':8, 'Cu':11}

datacsv={}
for nm in ['atom','charge','method','basis','pseudopotential','hf',
           'totalenergy','totalenergy-stocherr','totalenergy-syserr']:
  datacsv[nm]=[]

basis='vqz'
el='Mn'
charge=1

mol=gto.Mole()
mol.ecp={}
mol.basis={}
mol.ecp[el]=gto.basis.parse_ecp(df[el]['ecp'])
mol.basis[el]=gto.basis.parse(df[el][basis])
mol.charge=charge
if el == 'Cr' or el == 'Cu':
  mol.spin=spins[el]-charge
else:
  mol.spin=spins[el]+charge
mol.build(atom="%s 0. 0. 0."%el,verbose=4)

m=ROHF(mol)
m.level_shift=1000.0
dm=m.from_chk("../../../../HF/atoms/"+el+basis+str(charge)+".chk")
hf=m.kernel(dm)
m.analyze()

from pyscf.shciscf import shci
mc = shci.SHCISCF(m, 6, cas[el]-charge)
#mc.fcisolver.conv_tol = 1e-14
mc.fcisolver.mpiprefix="srun -n20"
mc.fcisolver.num_thrds=12
mc.verbose = 4
cas=mc.kernel()[0]
 
from pyscf.icmpspt import icmpspt
pt=icmpspt.icmpspt(mc,rdmM=500, PTM=1000,\
                          pttype="MRLCC",\
                          third_order=True,\
                          fully_ic=True,\
                          do_dm4=True)

datacsv['atom'].append(el)
datacsv['charge'].append(charge)
datacsv['method'].append('MRPT')
datacsv['basis'].append(basis)
datacsv['pseudopotential'].append('trail')
datacsv['hf'].append(hf)
datacsv['totalenergy'].append(cas+pt)
datacsv['totalenergy-stocherr'].append(0.0)
datacsv['totalenergy-syserr'].append(0.0)
pd.DataFrame(datacsv).to_csv(el+".csv",index=False)

#INFO: ******************** input file end ********************


System: ('Linux', 'bnode0302.rc.int.colorado.edu', '3.10.0-514.41.1.el7.x86_64', '#1 SMP Wed Jan 17 10:26:16 EST 2018', 'x86_64', 'x86_64')  Threads 28
Python 2.7.11 (default, Mar 22 2016, 01:42:54) 
[GCC Intel(R) C++ gcc 4.8 mode]
numpy 1.11.1  scipy 0.17.1
Date: Thu Apr 19 10:40:13 2018
PySCF version 1.4.6
PySCF path  /projects/bamu3429/softwares/pyscf_uptodate/pyscf
GIT ORIG_HEAD f3591ef22170896a4cdc2aadaa6f5da388ffcadb
GIT HEAD      ref: refs/heads/master
GIT master branch  1847583fb1d2472321833d3c71c8b7008e5fabf5

[INPUT] VERBOSE 4
[INPUT] num atoms = 1
[INPUT] num electrons = 14
[INPUT] charge = 1
[INPUT] spin (= nelec alpha-beta = 2S) = 6
[INPUT] symmetry False subgroup None
[INPUT]  1 Mn     0.000000000000   0.000000000000   0.000000000000 AA    0.000000000000   0.000000000000   0.000000000000 Bohr
[INPUT] ---------------- BASIS SET ---------------- 
[INPUT] l, kappa, [nprim/nctr], expnt,             c_1 c_2 ...
[INPUT] Mn
[INPUT] 0    0    [12   /1   ]  41.19094709       0.0124
                                21.94503151       -0.141461
                                12.89081507       0.669584
                                8.14876869        -1.015431
                                3.94904809        0.149151
                                1.91298055        0.350677
                                1.10736282        0.627006
                                0.4793266         0.235349
                                0.22675293        -0.024214
                                0.10639652        0.017357
                                0.05000494        -0.005272
                                0.0234982         0.002181
[INPUT] 0    0    [12   /1   ]  41.19094709       -0.002036
                                21.94503151       0.02709
                                12.89081507       -0.142056
                                8.14876869        0.229945
                                3.94904809        -0.035538
                                1.91298055        -0.085336
                                1.10736282        -0.24355
                                0.4793266         -0.201798
                                0.22675293        0.098761
                                0.10639652        0.439512
                                0.05000494        0.524416
                                0.0234982         0.13192
[INPUT] 0    0    [12   /1   ]  41.19094709       -0.004856
                                21.94503151       0.092685
                                12.89081507       -0.597148
                                8.14876869        1.137589
                                3.94904809        -0.390492
                                1.91298055        -1.331371
                                1.10736282        0.125193
                                0.4793266         0.729164
                                0.22675293        0.739266
                                0.10639652        0.030588
                                0.05000494        -0.566618
                                0.0234982         -0.237417
[INPUT] 0    0    [12   /1   ]  41.19094709       -0.003183
                                21.94503151       0.098456
                                12.89081507       -0.758579
                                8.14876869        1.655936
                                3.94904809        -1.068093
                                1.91298055        -2.224521
                                1.10736282        2.10545
                                0.4793266         1.414254
                                0.22675293        -1.498426
                                0.10639652        -0.857745
                                0.05000494        0.64559
                                0.0234982         0.522893
[INPUT] 0    0    [12   /1   ]  41.19094709       -0.005669
                                21.94503151       -0.072371
                                12.89081507       1.009725
                                8.14876869        -2.847369
                                3.94904809        3.982552
                                1.91298055        -0.244007
                                1.10736282        -3.839613
                                0.4793266         2.775896
                                0.22675293        0.937737
                                0.10639652        -2.238269
                                0.05000494        0.096996
                                0.0234982         0.900173
[INPUT] 0    0    [1    /1   ]  0.0234982            1
[INPUT] 0    0    [1    /1   ]  0.01104221           1
[INPUT] 1    0    [12   /1   ]  60.1913049        0.000757
                                31.1792672        -0.006538
                                16.24276866       0.042902
                                8.80021485        -0.164602
                                5.33575038        0.099387
                                3.0325056         0.217723
                                1.63861968        0.443669
                                0.80258711        0.32785
                                0.40627833        0.098641
                                0.17382998        0.011768
                                0.07306386        -0.000703
                                0.03071005        0.000403
[INPUT] 1    0    [12   /1   ]  60.1913049        -0.000118
                                31.1792672        0.001208
                                16.24276866       -0.009122
                                8.80021485        0.038924
                                5.33575038        -0.027473
                                3.0325056         -0.058215
                                1.63861968        -0.124371
                                0.80258711        -0.107355
                                0.40627833        0.040741
                                0.17382998        0.350952
                                0.07306386        0.523294
                                0.03071005        0.234255
[INPUT] 1    0    [12   /1   ]  60.1913049        -0.000139
                                31.1792672        -0.00242
                                16.24276866       0.038793
                                8.80021485        -0.243459
                                5.33575038        0.194569
                                3.0325056         0.842216
                                1.63861968        0.066699
                                0.80258711        -0.892913
                                0.40627833        -0.392543
                                0.17382998        0.60286
                                0.07306386        0.393012
                                0.03071005        0.007885
[INPUT] 1    0    [12   /1   ]  60.1913049        -0.000398
                                31.1792672        -0.002431
                                16.24276866       0.06499
                                8.80021485        -0.561344
                                5.33575038        1.083365
                                3.0325056         0.923337
                                1.63861968        -1.661685
                                0.80258711        -0.597311
                                0.40627833        1.567186
                                0.17382998        -0.097993
                                0.07306386        -0.65828
                                0.03071005        -0.003976
[INPUT] 1    0    [12   /1   ]  60.1913049        -0.006402
                                31.1792672        0.03287
                                16.24276866       -0.058877
                                8.80021485        -0.69608
                                5.33575038        3.097068
                                3.0325056         -2.128644
                                1.63861968        -1.540559
                                0.80258711        2.934562
                                0.40627833        -1.1907
                                0.17382998        -0.89455
                                0.07306386        0.961804
                                0.03071005        -0.004278
[INPUT] 1    0    [1    /1   ]  0.03071005           1
[INPUT] 1    0    [1    /1   ]  0.01290798           1
[INPUT] 2    0    [10   /1   ]  52.56900844       0.000307
                                23.81654224       -0.007961
                                11.32693504       0.114253
                                4.99176622        0.164228
                                2.46839125        0.269996
                                1.15974738        0.320627
                                0.53124091        0.273188
                                0.24220121        0.161357
                                0.11248934        0.058244
                                0.05201371        0.009574
[INPUT] 2    0    [10   /1   ]  52.56900844       0.000337
                                23.81654224       0.004956
                                11.32693504       -0.107195
                                4.99176622        -0.206571
                                2.46839125        -0.366595
                                1.15974738        -0.092317
                                0.53124091        0.265958
                                0.24220121        0.408928
                                0.11248934        0.279128
                                0.05201371        0.068593
[INPUT] 2    0    [10   /1   ]  52.56900844       -0.002325
                                23.81654224       0.003859
                                11.32693504       0.104269
                                4.99176622        0.404616
                                2.46839125        0.341311
                                1.15974738        -0.607186
                                0.53124091        -0.484076
                                0.24220121        0.257285
                                0.11248934        0.465281
                                0.05201371        0.134253
[INPUT] 2    0    [10   /1   ]  52.56900844       -0.001087
                                23.81654224       -0.007049
                                11.32693504       0.271774
                                4.99176622        0.883987
                                2.46839125        -0.93145
                                1.15974738        -0.608336
                                0.53124091        0.93983
                                0.24220121        0.109829
                                0.11248934        -0.447095
                                0.05201371        -0.157185
[INPUT] 2    0    [1    /1   ]  0.05201371           1
[INPUT] 2    0    [1    /1   ]  0.02405051           1
[INPUT] 3    0    [1    /1   ]  4.240921             1
[INPUT] 3    0    [1    /1   ]  1.457367             1
[INPUT] 3    0    [1    /1   ]  0.500814             1
[INPUT] 3    0    [1    /1   ]  0.17210123           1
[INPUT] 4    0    [1    /1   ]  4.129721             1
[INPUT] 4    0    [1    /1   ]  1.439666             1
[INPUT] 4    0    [1    /1   ]  0.50188333           1
[INPUT] 5    0    [1    /1   ]  3.445174             1
[INPUT] 5    0    [1    /1   ]  1.20102538           1
nuclear repulsion = 0
number of shells = 29
number of NR pGTOs = 535
number of NR cGTOs = 135
basis = {'Mn': [[0, [41.19094709, 0.0124], [21.94503151, -0.141461], [12.89081507, 0.669584], [8.14876869, -1.015431], [3.94904809, 0.149151], [1.91298055, 0.350677], [1.10736282, 0.627006], [0.4793266, 0.235349], [0.22675293, -0.024214], [0.10639652, 0.017357], [0.05000494, -0.005272], [0.0234982, 0.002181]], [0, [41.19094709, -0.002036], [21.94503151, 0.02709], [12.89081507, -0.142056], [8.14876869, 0.229945], [3.94904809, -0.035538], [1.91298055, -0.085336], [1.10736282, -0.24355], [0.4793266, -0.201798], [0.22675293, 0.098761], [0.10639652, 0.439512], [0.05000494, 0.524416], [0.0234982, 0.13192]], [0, [41.19094709, -0.004856], [21.94503151, 0.092685], [12.89081507, -0.597148], [8.14876869, 1.137589], [3.94904809, -0.390492], [1.91298055, -1.331371], [1.10736282, 0.125193], [0.4793266, 0.729164], [0.22675293, 0.739266], [0.10639652, 0.030588], [0.05000494, -0.566618], [0.0234982, -0.237417]], [0, [41.19094709, -0.003183], [21.94503151, 0.098456], [12.89081507, -0.758579], [8.14876869, 1.655936], [3.94904809, -1.068093], [1.91298055, -2.224521], [1.10736282, 2.10545], [0.4793266, 1.414254], [0.22675293, -1.498426], [0.10639652, -0.857745], [0.05000494, 0.64559], [0.0234982, 0.522893]], [0, [41.19094709, -0.005669], [21.94503151, -0.072371], [12.89081507, 1.009725], [8.14876869, -2.847369], [3.94904809, 3.982552], [1.91298055, -0.244007], [1.10736282, -3.839613], [0.4793266, 2.775896], [0.22675293, 0.937737], [0.10639652, -2.238269], [0.05000494, 0.096996], [0.0234982, 0.900173]], [0, [0.0234982, 1.0]], [0, [0.01104221, 1.0]], [1, [60.1913049, 0.000757], [31.1792672, -0.006538], [16.24276866, 0.042902], [8.80021485, -0.164602], [5.33575038, 0.099387], [3.0325056, 0.217723], [1.63861968, 0.443669], [0.80258711, 0.32785], [0.40627833, 0.098641], [0.17382998, 0.011768], [0.07306386, -0.000703], [0.03071005, 0.000403]], [1, [60.1913049, -0.000118], [31.1792672, 0.001208], [16.24276866, -0.009122], [8.80021485, 0.038924], [5.33575038, -0.027473], [3.0325056, -0.058215], [1.63861968, -0.124371], [0.80258711, -0.107355], [0.40627833, 0.040741], [0.17382998, 0.350952], [0.07306386, 0.523294], [0.03071005, 0.234255]], [1, [60.1913049, -0.000139], [31.1792672, -0.00242], [16.24276866, 0.038793], [8.80021485, -0.243459], [5.33575038, 0.194569], [3.0325056, 0.842216], [1.63861968, 0.066699], [0.80258711, -0.892913], [0.40627833, -0.392543], [0.17382998, 0.60286], [0.07306386, 0.393012], [0.03071005, 0.007885]], [1, [60.1913049, -0.000398], [31.1792672, -0.002431], [16.24276866, 0.06499], [8.80021485, -0.561344], [5.33575038, 1.083365], [3.0325056, 0.923337], [1.63861968, -1.661685], [0.80258711, -0.597311], [0.40627833, 1.567186], [0.17382998, -0.097993], [0.07306386, -0.65828], [0.03071005, -0.003976]], [1, [60.1913049, -0.006402], [31.1792672, 0.03287], [16.24276866, -0.058877], [8.80021485, -0.69608], [5.33575038, 3.097068], [3.0325056, -2.128644], [1.63861968, -1.540559], [0.80258711, 2.934562], [0.40627833, -1.1907], [0.17382998, -0.89455], [0.07306386, 0.961804], [0.03071005, -0.004278]], [1, [0.03071005, 1.0]], [1, [0.01290798, 1.0]], [2, [52.56900844, 0.000307], [23.81654224, -0.007961], [11.32693504, 0.114253], [4.99176622, 0.164228], [2.46839125, 0.269996], [1.15974738, 0.320627], [0.53124091, 0.273188], [0.24220121, 0.161357], [0.11248934, 0.058244], [0.05201371, 0.009574]], [2, [52.56900844, 0.000337], [23.81654224, 0.004956], [11.32693504, -0.107195], [4.99176622, -0.206571], [2.46839125, -0.366595], [1.15974738, -0.092317], [0.53124091, 0.265958], [0.24220121, 0.408928], [0.11248934, 0.279128], [0.05201371, 0.068593]], [2, [52.56900844, -0.002325], [23.81654224, 0.003859], [11.32693504, 0.104269], [4.99176622, 0.404616], [2.46839125, 0.341311], [1.15974738, -0.607186], [0.53124091, -0.484076], [0.24220121, 0.257285], [0.11248934, 0.465281], [0.05201371, 0.134253]], [2, [52.56900844, -0.001087], [23.81654224, -0.007049], [11.32693504, 0.271774], [4.99176622, 0.883987], [2.46839125, -0.93145], [1.15974738, -0.608336], [0.53124091, 0.93983], [0.24220121, 0.109829], [0.11248934, -0.447095], [0.05201371, -0.157185]], [2, [0.05201371, 1.0]], [2, [0.02405051, 1.0]], [3, [4.240921, 1.0]], [3, [1.457367, 1.0]], [3, [0.500814, 1.0]], [3, [0.17210123, 1.0]], [4, [4.129721, 1.0]], [4, [1.439666, 1.0]], [4, [0.50188333, 1.0]], [5, [3.445174, 1.0]], [5, [1.20102538, 1.0]]]}
ecp = {'Mn': [10, [[-1, [[], [[18.43432244, 15.0]], [[12.74175213, 31301.56494509], [11.67410914, -4576.3546318], [12.90376156, -26766.73507377], [4.97171871, -4.09339906]], [[8.79264819, 276.51483655]]]], [0, [[], [], [[13.56187871, 2771.78238977], [9.44812535, 12553.69429672], [10.76503846, 1886.79316638], [11.65345594, -9260.55332402], [8.48073002, -8943.95003535], [6.96707028, 1041.73211249]], []]], [1, [[], [], [[12.71342918, -23181.32761179], [18.03174513, 111577.22220216], [16.6827906, -42399.84416473], [13.18867124, 16025.79106608], [18.42861128, -76264.60573764], [12.90928974, 14270.47832347]], []]], [2, [[], [], [[8.13384228, -382.83904013], [14.28699222, 5676.99013005], [11.14406629, 35338.03440844], [11.37674978, -38881.44458388], [18.25818233, 3550.6602642], [17.73146307, -5317.47975296]], []]]]]}
CPU time:         3.54


******** <class 'pyscf.scf.rohf.ROHF'> flags ********
method = ROHF
initial guess = minao
damping factor = 0
level shift factor = 1000.0
DIIS = <class 'pyscf.scf.diis.CDIIS'>
DIIS start cycle = 1
DIIS space = 8
SCF tol = 1e-09
SCF gradient tol = None
max. SCF cycles = 50
direct_scf = True
direct_scf_tol = 1e-13
chkfile to save SCF result = /rc_scratch/bamu3429/tmpC32Tbd
max_memory 4000 MB (current use 127 MB)
num. doubly occ = 4  num. singly occ = 6
Set gradient conv threshold to 3.16228e-05
init E= -103.299434731133
  HOMO = 499.629947944229  LUMO = 999.858215196202
cycle= 1 E= -103.299434731133  delta_E= -9.95e-14  |g|= 2.45e-06  |ddm|= 1.61e-08
  HOMO = -0.370052055893951  LUMO = -0.141784803844411
Extra cycle  E= -103.299434731134  delta_E= -1.55e-12  |g|= 9.56e-07  |ddm|= 5.7e-06
converged SCF energy = -103.299434731134
**** MO energy ****
                Roothaan           | alpha              | beta
MO #1   energy= -4.30472040383995  | -4.53048021876201  | -4.07896057475012  occ= 2
MO #2   energy= -2.81309174555038  | -3.0826540559121   | -2.54352943518865  occ= 2
MO #3   energy= -2.81309174555038  | -3.08265405591211  | -2.54352943518865  occ= 2
MO #4   energy= -2.81309174555037  | -3.0826540559121   | -2.54352943518864  occ= 2
MO #5   energy= -0.423428039060877 | -0.925934541390608 | 0.0790783721385134 occ= 1
MO #6   energy= -0.423428039060872 | -0.925934541390607 | 0.0790783721385076 occ= 1
MO #7   energy= -0.423428039060846 | -0.925934541390567 | 0.0790783721385219 occ= 1
MO #8   energy= -0.423428039060842 | -0.925934541390564 | 0.0790783721385244 occ= 1
MO #9   energy= -0.423428039060837 | -0.925934541390559 | 0.0790783721385262 occ= 1
MO #10  energy= -0.370052055893951 | -0.550427740626305 | -0.189676406878181 occ= 1
MO #11  energy= -0.141784803844411 | -0.169225955391425 | -0.114343652297385 occ= 0
MO #12  energy= -0.141784803844407 | -0.169225955391427 | -0.114343652297384 occ= 0
MO #13  energy= -0.141784803844403 | -0.169225955391426 | -0.114343652297385 occ= 0
MO #14  energy= -0.0829110142131574 | -0.0854940919577707 | -0.0803278861754962 occ= 0
MO #15  energy= -0.0540696685273215 | -0.0595012780322337 | -0.048638059022405 occ= 0
MO #16  energy= -0.0540696685273197 | -0.0595012780322336 | -0.0486380590224052 occ= 0
MO #17  energy= -0.0540696685273196 | -0.0595012780322334 | -0.0486380590224054 occ= 0
MO #18  energy= -0.0482811667047494 | -0.0500741074412283 | -0.046488238094178 occ= 0
MO #19  energy= -0.0482811667047476 | -0.0500741074412273 | -0.0464882380941781 occ= 0
MO #20  energy= -0.0482811667047472 | -0.0500741074412266 | -0.0464882380941764 occ= 0
MO #21  energy= -0.0482811667047427 | -0.0500741074412262 | -0.0464882380941767 occ= 0
MO #22  energy= -0.0482811667047424 | -0.050074107441226 | -0.0464882380941758 occ= 0
MO #23  energy= 0.0329959784423953 | 0.0223533367989395 | 0.0436386522899657 occ= 0
MO #24  energy= 0.0546763641499291 | 0.0467016603223499 | 0.0626510378447145 occ= 0
MO #25  energy= 0.0546763641499301 | 0.0467016603223452 | 0.0626510378447101 occ= 0
MO #26  energy= 0.0546763641499313 | 0.0467016603223509 | 0.0626510378447159 occ= 0
MO #27  energy= 0.0546763641499313 | 0.0467016603223486 | 0.062651037844713  occ= 0
MO #28  energy= 0.0546763641499319 | 0.0467016603223521 | 0.0626510378447172 occ= 0
MO #29  energy= 0.0633123080478881 | 0.043686635935906  | 0.0829379801598709 occ= 0
MO #30  energy= 0.0633123080478931 | 0.0436866359359141 | 0.0829379801598773 occ= 0
MO #31  energy= 0.0633123080478938 | 0.0436866359359122 | 0.0829379801598753 occ= 0
MO #32  energy= 0.413499315783797  | 0.400501587393261  | 0.426497044174348  occ= 0
MO #33  energy= 0.413499315783802  | 0.400501587393261  | 0.426497044174348  occ= 0
MO #34  energy= 0.413499315783803  | 0.40050158739326   | 0.426497044174348  occ= 0
MO #35  energy= 0.413499315783804  | 0.40050158739326   | 0.426497044174347  occ= 0
MO #36  energy= 0.413499315783805  | 0.40050158739326   | 0.426497044174347  occ= 0
MO #37  energy= 0.413499315783807  | 0.40050158739326   | 0.426497044174347  occ= 0
MO #38  energy= 0.413499315783808  | 0.40050158739326   | 0.426497044174347  occ= 0
MO #39  energy= 0.416177284924962  | 0.394451599428976  | 0.437902939126399  occ= 0
MO #40  energy= 0.523309536153772  | 0.475773018097778  | 0.570846173023529  occ= 0
MO #41  energy= 0.523309536153774  | 0.475773018097786  | 0.570846173023532  occ= 0
MO #42  energy= 0.523309536153797  | 0.475773018097802  | 0.570846173023569  occ= 0
MO #43  energy= 0.523309536153801  | 0.475773018097801  | 0.570846173023568  occ= 0
MO #44  energy= 0.523309536153802  | 0.475773018097802  | 0.570846173023568  occ= 0
MO #45  energy= 0.993922293649291  | 0.942039328874139  | 1.04580525842447   occ= 0
MO #46  energy= 0.993922293649295  | 0.942039328874138  | 1.04580525842446   occ= 0
MO #47  energy= 0.993922293649307  | 0.942039328874142  | 1.04580525842447   occ= 0
MO #48  energy= 1.66627735554492   | 1.61119675792382   | 1.72135795316603   occ= 0
MO #49  energy= 1.66627735554492   | 1.61119675792382   | 1.72135795316602   occ= 0
MO #50  energy= 1.66627735554492   | 1.61119675792382   | 1.72135795316602   occ= 0
MO #51  energy= 1.66627735554492   | 1.61119675792382   | 1.72135795316603   occ= 0
MO #52  energy= 1.66627735554492   | 1.61119675792382   | 1.72135795316603   occ= 0
MO #53  energy= 1.66627735554493   | 1.61119675792382   | 1.72135795316603   occ= 0
MO #54  energy= 1.66627735554493   | 1.61119675792383   | 1.72135795316603   occ= 0
MO #55  energy= 2.0623631026146    | 2.04031948512062   | 2.08440672010859   occ= 0
MO #56  energy= 2.0623631026146    | 2.04031948512062   | 2.08440672010859   occ= 0
MO #57  energy= 2.0623631026146    | 2.04031948512062   | 2.08440672010859   occ= 0
MO #58  energy= 2.0623631026146    | 2.04031948512062   | 2.08440672010859   occ= 0
MO #59  energy= 2.06236310261461   | 2.04031948512063   | 2.08440672010859   occ= 0
MO #60  energy= 2.06236310261461   | 2.04031948512063   | 2.08440672010859   occ= 0
MO #61  energy= 2.06236310261461   | 2.04031948512063   | 2.0844067201086    occ= 0
MO #62  energy= 2.06236310261461   | 2.04031948512063   | 2.08440672010859   occ= 0
MO #63  energy= 2.06236310261462   | 2.04031948512063   | 2.0844067201086    occ= 0
MO #64  energy= 2.16457178785413   | 2.10843777834253   | 2.22070577122076   occ= 0
MO #65  energy= 2.75445213373576   | 2.66037146621772   | 2.84853281552861   occ= 0
MO #66  energy= 2.75445213373578   | 2.66037146621774   | 2.84853281552864   occ= 0
MO #67  energy= 2.75445213373579   | 2.66037146621776   | 2.84853281552865   occ= 0
MO #68  energy= 2.7544521337358    | 2.66037146621777   | 2.84853281552866   occ= 0
MO #69  energy= 2.7544521337358    | 2.66037146621777   | 2.84853281552866   occ= 0
MO #70  energy= 4.470397495469     | 4.40374270801929   | 4.53705228291871   occ= 0
MO #71  energy= 4.470397495469     | 4.4037427080193    | 4.53705228291872   occ= 0
MO #72  energy= 4.47039749546901   | 4.4037427080193    | 4.53705228291872   occ= 0
MO #73  energy= 4.85570677473024   | 4.74124660495221   | 4.97016694450827   occ= 0
MO #74  energy= 4.85570677473025   | 4.74124660495223   | 4.97016694450828   occ= 0
MO #75  energy= 4.85570677473025   | 4.74124660495223   | 4.97016694450828   occ= 0
MO #76  energy= 4.85570677473025   | 4.74124660495223   | 4.97016694450828   occ= 0
MO #77  energy= 4.85570677473025   | 4.74124660495223   | 4.97016694450828   occ= 0
MO #78  energy= 4.85570677473026   | 4.74124660495222   | 4.97016694450828   occ= 0
MO #79  energy= 4.85570677473026   | 4.74124660495223   | 4.97016694450829   occ= 0
MO #80  energy= 6.48096805401128   | 6.45105469726666   | 6.5108814107559    occ= 0
MO #81  energy= 6.48096805401129   | 6.45105469726667   | 6.51088141075591   occ= 0
MO #82  energy= 6.48096805401129   | 6.45105469726666   | 6.51088141075589   occ= 0
MO #83  energy= 6.48096805401129   | 6.45105469726666   | 6.5108814107559    occ= 0
MO #84  energy= 6.48096805401129   | 6.45105469726667   | 6.5108814107559    occ= 0
MO #85  energy= 6.48096805401129   | 6.45105469726667   | 6.51088141075591   occ= 0
MO #86  energy= 6.48096805401129   | 6.45105469726669   | 6.51088141075592   occ= 0
MO #87  energy= 6.48096805401129   | 6.45105469726668   | 6.51088141075591   occ= 0
MO #88  energy= 6.48096805401129   | 6.45105469726667   | 6.5108814107559    occ= 0
MO #89  energy= 6.48096805401129   | 6.45105469726668   | 6.51088141075591   occ= 0
MO #90  energy= 6.48096805401129   | 6.45105469726667   | 6.51088141075591   occ= 0
MO #91  energy= 6.70767223786823   | 6.6487337496172    | 6.76661072611929   occ= 0
MO #92  energy= 6.70767223786824   | 6.6487337496172    | 6.76661072611929   occ= 0
MO #93  energy= 6.70767223786824   | 6.64873374961721   | 6.76661072611929   occ= 0
MO #94  energy= 6.70767223786824   | 6.6487337496172    | 6.76661072611928   occ= 0
MO #95  energy= 6.70767223786824   | 6.6487337496172    | 6.76661072611929   occ= 0
MO #96  energy= 6.70767223786825   | 6.64873374961721   | 6.76661072611929   occ= 0
MO #97  energy= 6.70767223786825   | 6.64873374961721   | 6.7666107261193    occ= 0
MO #98  energy= 6.70767223786826   | 6.64873374961723   | 6.76661072611931   occ= 0
MO #99  energy= 6.70767223786826   | 6.64873374961721   | 6.7666107261193    occ= 0
MO #100 energy= 8.88490546255119   | 8.80512285239271   | 8.96468807301014   occ= 0
MO #101 energy= 8.88490546255119   | 8.80512285239269   | 8.96468807301012   occ= 0
MO #102 energy= 8.88490546255119   | 8.80512285239272   | 8.96468807301015   occ= 0
MO #103 energy= 8.88490546255122   | 8.80512285239275   | 8.96468807301017   occ= 0
MO #104 energy= 8.88490546255123   | 8.80512285239274   | 8.96468807301017   occ= 0
MO #105 energy= 9.26513549387585   | 9.1923438925343    | 9.3379270917085    occ= 0
MO #106 energy= 13.6373989728757   | 13.5304583846367   | 13.7443395611148   occ= 0
MO #107 energy= 13.6373989728758   | 13.5304583846368   | 13.7443395611148   occ= 0
MO #108 energy= 13.6373989728758   | 13.5304583846367   | 13.7443395611147   occ= 0
MO #109 energy= 13.6373989728758   | 13.5304583846367   | 13.7443395611148   occ= 0
MO #110 energy= 13.6373989728758   | 13.5304583846368   | 13.7443395611148   occ= 0
MO #111 energy= 13.6373989728758   | 13.5304583846368   | 13.7443395611148   occ= 0
MO #112 energy= 13.6373989728758   | 13.5304583846367   | 13.7443395611148   occ= 0
MO #113 energy= 13.9431616770143   | 13.8764721702605   | 14.0098511837681   occ= 0
MO #114 energy= 13.9431616770143   | 13.8764721702605   | 14.0098511837681   occ= 0
MO #115 energy= 13.9431616770144   | 13.8764721702606   | 14.0098511837682   occ= 0
MO #116 energy= 18.8667058443721   | 18.7867624509805   | 18.9466492377637   occ= 0
MO #117 energy= 18.8667058443721   | 18.7867624509805   | 18.9466492377636   occ= 0
MO #118 energy= 18.8667058443721   | 18.7867624509805   | 18.9466492377636   occ= 0
MO #119 energy= 18.8667058443721   | 18.7867624509805   | 18.9466492377636   occ= 0
MO #120 energy= 18.8667058443721   | 18.7867624509806   | 18.9466492377637   occ= 0
MO #121 energy= 18.8667058443721   | 18.7867624509805   | 18.9466492377637   occ= 0
MO #122 energy= 18.8667058443721   | 18.7867624509805   | 18.9466492377637   occ= 0
MO #123 energy= 18.8667058443721   | 18.7867624509805   | 18.9466492377637   occ= 0
MO #124 energy= 18.8667058443721   | 18.7867624509805   | 18.9466492377637   occ= 0
MO #125 energy= 19.890537598552    | 19.8342917953104   | 19.9467834017936   occ= 0
MO #126 energy= 19.890537598552    | 19.8342917953104   | 19.9467834017936   occ= 0
MO #127 energy= 19.890537598552    | 19.8342917953104   | 19.9467834017936   occ= 0
MO #128 energy= 19.890537598552    | 19.8342917953104   | 19.9467834017936   occ= 0
MO #129 energy= 19.890537598552    | 19.8342917953104   | 19.9467834017936   occ= 0
MO #130 energy= 19.890537598552    | 19.8342917953104   | 19.9467834017936   occ= 0
MO #131 energy= 19.890537598552    | 19.8342917953104   | 19.9467834017936   occ= 0
MO #132 energy= 19.890537598552    | 19.8342917953104   | 19.9467834017937   occ= 0
MO #133 energy= 19.890537598552    | 19.8342917953104   | 19.9467834017936   occ= 0
MO #134 energy= 19.890537598552    | 19.8342917953104   | 19.9467834017936   occ= 0
MO #135 energy= 19.890537598552    | 19.8342917953104   | 19.9467834017937   occ= 0
 ** Mulliken pop on meta-lowdin orthogonal AOs  **
 ** Mulliken pop  **
pop of  0Mn 3s        1.99998
pop of  0Mn 4s        0.95268
pop of  0Mn 5s        0.02578
pop of  0Mn 6s        0.01054
pop of  0Mn 7s        0.00037
pop of  0Mn 8s        0.00627
pop of  0Mn 9s        0.00439
pop of  0Mn 3px       1.99989
pop of  0Mn 3py       1.99989
pop of  0Mn 3pz       1.99989
pop of  0Mn 4px       0.00009
pop of  0Mn 4py       0.00009
pop of  0Mn 4pz       0.00009
pop of  0Mn 5px       0.00001
pop of  0Mn 5py       0.00001
pop of  0Mn 5pz       0.00001
pop of  0Mn 6px       0.00001
pop of  0Mn 6py       0.00001
pop of  0Mn 6pz       0.00001
pop of  0Mn 7px       0.00000
pop of  0Mn 7py       0.00000
pop of  0Mn 7pz       0.00000
pop of  0Mn 8px       0.00000
pop of  0Mn 8py       0.00000
pop of  0Mn 8pz       0.00000
pop of  0Mn 9px       0.00000
pop of  0Mn 9py       0.00000
pop of  0Mn 9pz       0.00000
pop of  0Mn 3dxy      0.99494
pop of  0Mn 3dyz      0.99494
pop of  0Mn 3dz^2     0.99494
pop of  0Mn 3dxz      0.99494
pop of  0Mn 3dx2-y2    0.99494
pop of  0Mn 4dxy      0.00383
pop of  0Mn 4dyz      0.00383
pop of  0Mn 4dz^2     0.00383
pop of  0Mn 4dxz      0.00383
pop of  0Mn 4dx2-y2    0.00383
pop of  0Mn 5dxy      0.00038
pop of  0Mn 5dyz      0.00038
pop of  0Mn 5dz^2     0.00038
pop of  0Mn 5dxz      0.00038
pop of  0Mn 5dx2-y2    0.00038
pop of  0Mn 6dxy      0.00001
pop of  0Mn 6dyz      0.00001
pop of  0Mn 6dz^2     0.00001
pop of  0Mn 6dxz      0.00001
pop of  0Mn 6dx2-y2    0.00001
pop of  0Mn 7dxy      0.00079
pop of  0Mn 7dyz      0.00079
pop of  0Mn 7dz^2     0.00079
pop of  0Mn 7dxz      0.00079
pop of  0Mn 7dx2-y2    0.00079
pop of  0Mn 8dxy      0.00006
pop of  0Mn 8dyz      0.00006
pop of  0Mn 8dz^2     0.00006
pop of  0Mn 8dxz      0.00006
pop of  0Mn 8dx2-y2    0.00006
pop of  0Mn 4fy^3     0.00000
pop of  0Mn 4fxyz     0.00000
pop of  0Mn 4fyz^2    0.00000
pop of  0Mn 4fz^3     0.00000
pop of  0Mn 4fxz^2    0.00000
pop of  0Mn 4fzx^2    0.00000
pop of  0Mn 4fx^3     0.00000
pop of  0Mn 5fy^3     0.00000
pop of  0Mn 5fxyz     0.00000
pop of  0Mn 5fyz^2    0.00000
pop of  0Mn 5fz^3     0.00000
pop of  0Mn 5fxz^2    0.00000
pop of  0Mn 5fzx^2    0.00000
pop of  0Mn 5fx^3     0.00000
pop of  0Mn 6fy^3     0.00000
pop of  0Mn 6fxyz     0.00000
pop of  0Mn 6fyz^2    0.00000
pop of  0Mn 6fz^3     0.00000
pop of  0Mn 6fxz^2    0.00000
pop of  0Mn 6fzx^2    0.00000
pop of  0Mn 6fx^3     0.00000
pop of  0Mn 7fy^3     0.00000
pop of  0Mn 7fxyz     0.00000
pop of  0Mn 7fyz^2    0.00000
pop of  0Mn 7fz^3     0.00000
pop of  0Mn 7fxz^2    0.00000
pop of  0Mn 7fzx^2    0.00000
pop of  0Mn 7fx^3     0.00000
pop of  0Mn 5g-4      0.00000
pop of  0Mn 5g-3      0.00000
pop of  0Mn 5g-2      0.00000
pop of  0Mn 5g-1      0.00000
pop of  0Mn 5g 0      0.00000
pop of  0Mn 5g 1      0.00000
pop of  0Mn 5g 2      0.00000
pop of  0Mn 5g 3      0.00000
pop of  0Mn 5g 4      0.00000
pop of  0Mn 6g-4      0.00000
pop of  0Mn 6g-3      0.00000
pop of  0Mn 6g-2      0.00000
pop of  0Mn 6g-1      0.00000
pop of  0Mn 6g 0      0.00000
pop of  0Mn 6g 1      0.00000
pop of  0Mn 6g 2      0.00000
pop of  0Mn 6g 3      0.00000
pop of  0Mn 6g 4      0.00000
pop of  0Mn 7g-4      0.00000
pop of  0Mn 7g-3      0.00000
pop of  0Mn 7g-2      0.00000
pop of  0Mn 7g-1      0.00000
pop of  0Mn 7g 0      0.00000
pop of  0Mn 7g 1      0.00000
pop of  0Mn 7g 2      0.00000
pop of  0Mn 7g 3      0.00000
pop of  0Mn 7g 4      0.00000
pop of  0Mn 6h-5      0.00000
pop of  0Mn 6h-4      0.00000
pop of  0Mn 6h-3      0.00000
pop of  0Mn 6h-2      0.00000
pop of  0Mn 6h-1      0.00000
pop of  0Mn 6h 0      0.00000
pop of  0Mn 6h 1      0.00000
pop of  0Mn 6h 2      0.00000
pop of  0Mn 6h 3      0.00000
pop of  0Mn 6h 4      0.00000
pop of  0Mn 6h 5      0.00000
pop of  0Mn 7h-5      0.00000
pop of  0Mn 7h-4      0.00000
pop of  0Mn 7h-3      0.00000
pop of  0Mn 7h-2      0.00000
pop of  0Mn 7h-1      0.00000
pop of  0Mn 7h 0      0.00000
pop of  0Mn 7h 1      0.00000
pop of  0Mn 7h 2      0.00000
pop of  0Mn 7h 3      0.00000
pop of  0Mn 7h 4      0.00000
pop of  0Mn 7h 5      0.00000
 ** Mulliken atomic charges  **
charge of  0Mn =      1.00000

******** <class 'pyscf.mcscf.mc1step.CASSCF'> flags ********
CAS (6e+0e, 6o), ncore = 4, nvir = 125
max_cycle_macro = 50
max_cycle_micro = 4
conv_tol = 1e-07
conv_tol_grad = None
orbital rotation max_stepsize = 0.02
augmented hessian ah_max_cycle = 30
augmented hessian ah_conv_tol = 1e-12
augmented hessian ah_linear dependence = 1e-14
augmented hessian ah_level shift = 0
augmented hessian ah_start_tol = 2.5
augmented hessian ah_start_cycle = 3
augmented hessian ah_grad_trust_region = 3
kf_trust_region = 3
kf_interval = 4
ci_response_space = 4
ci_grad_trust_region = 3
with_dep4 0
natorb = False
canonicalization = True
sorting_mo_energy = False
chkfile = ./scratch/17120/tmpSDIA97
max_memory 4000 MB (current use 772 MB)
internal_rotation = False

******** SHCI flags ********
executable             = /home/bamu3429/softwares/dice/Dice
mpiprefix              = srun -n20
scratchDirectory       = ./scratch/17120
integralFile           = ./FCIDUMP
configFile             = ./input.dat
outputFile             = ./output.dat
maxIter                = 6
sweep_iter             = []
sweep_epsilon          = []
nPTiter                = 0
Stochastic             = True
fullrestart            = False
restart                = False
num_thrds              = 12
memory                 = None

CASCI E = -103.299434731135  S^2 = 12.0000000
Set conv_tol_grad to 0.000316228
macro iter 1 (1 JK  1 micro), CASSCF E = -103.299434731135  dE = 0  S^2 = 12.0000000
               |grad[o]|=9.56e-07  |grad[c]|= None  |ddm|=    0
1-step CASSCF converged in 1 macro (1 JK 1 micro) steps
CASSCF canonicalization
CASSCF energy = -103.299434731135


--------------------------------------------------
                 ICMPSPT CALCULATION              
--------------------------------------------------

Perturbation type: MRLCC
With fully internally contracted scheme
With third order correction

Preparing necessary RDMs
......production of RDMs took       2.03 sec
Reading binary 4RDM from DICE
......reading the RDM took          0.97 sec

(GOOD) Trace 4RDM:    360.0 =    6*    5*    4*    3
(GOOD) Trace 3RDM:    120.0 =    6*    5*    4
(GOOD) Trace 2RDM:     30.0 =    6*    5
(GOOD) Trace 1RDM:      6.0 =    6

Producing the integrals
......production of INT took     250.86 sec

Energy_core =  -88.45260399
Energy      = -103.29943473

WARNING: Have to use natural orbitals from CAASCF
         offdiagonal elements:    0.80435515

Basic ingredients written to int/
......savings of INGREDIENTS took      66.80 sec

Second-order:
perturber CCVV --        -0.112824410
perturber CCAV --        -0.048358302
perturber ACVV --        -0.180143977
perturber CCAA --        -0.028452157
perturber AAVV --        -0.098236928
perturber CAAV --        -0.122639374
perturber AAAV --        -0.000000000
perturber AAAC --        -0.000000000
Total:                   -0.590655148

Third-order:              0.003675668

Total PT       --        -0.586979480

