 &FCI NORB=6 ,NELEC=10 ,MS2=0,
  ORBSYM=1,1,1,1,1,1,
  ISYM=1,
 &END
  1.015282071416e+00    1  1  1  1
 -2.443584346811e-09    2  1  1  1
  3.876997756202e-02    2  1  2  1
  9.377420812868e-01    2  2  1  1
  1.719708028156e-09    2  2  2  1
  1.015282083280e+00    2  2  2  2
  3.382384134398e-09    3  1  1  1
 -1.215359971909e-04    3  1  2  1
  6.282711517585e-05    3  1  2  2
  3.876320178803e-02    3  1  3  1
  2.441208841764e-04    3  2  1  1
 -3.143523562544e-05    3  2  2  1
  2.084068328484e-11    3  2  2  2
  6.558072599222e-05    3  2  3  1
  3.876612350567e-02    3  2  3  2
  9.377556566085e-01    3  3  1  1
 -1.315050056819e-04    3  3  2  1
  9.377498044296e-01    3  3  2  2
 -6.276309693665e-09    3  3  3  1
 -7.480145479619e-11    3  3  3  2
  1.015282018764e+00    3  3  3  3
  6.058853684721e-07    4  1  1  1
 -2.125613776085e-05    4  1  2  1
 -4.570993840458e-04    4  1  2  2
  4.034550235809e-05    4  1  3  1
  1.979764463754e-02    4  1  3  2
  7.331987124600e-04    4  1  3  3
  4.376048315399e-02    4  1  4  1
  4.247102823948e-05    4  2  1  1
  2.283255621906e-04    4  2  2  1
  2.056292912084e-08    4  2  2  2
 -1.319602130417e-02    4  2  3  1
 -6.468465806580e-05    4  2  3  2
 -9.122197049129e-05    4  2  3  3
 -5.037804623479e-05    4  2  4  1
  3.127052823434e-02    4  2  4  2
 -8.086854912638e-05    4  3  1  1
 -6.600001073216e-03    4  3  2  1
  1.294919013623e-04    4  3  2  2
 -3.666783619032e-04    4  3  3  1
  4.561916990017e-05    4  3  3  2
  5.921342215519e-08    4  3  3  3
  4.496381681137e-05    4  3  4  1
  2.256470000889e-04    4  3  4  2
  2.380221681833e-02    4  3  4  3
  9.277647607912e-01    4  4  1  1
  1.007313704149e-04    4  4  2  1
  9.527385546584e-01    4  4  2  2
 -8.991466648159e-05    4  4  3  1
 -4.513306206871e-04    4  4  3  2
  9.676763720873e-01    4  4  3  3
 -2.022759205127e-07    4  4  4  1
  5.548204161594e-09    4  4  4  2
  5.230576690541e-08    4  4  4  3
  1.015279947703e+00    4  4  4  4
 -1.136245742082e-07    5  1  1  1
 -3.878886856891e-07    5  1  2  1
 -3.630877097879e-05    5  1  2  2
 -1.930472985140e-05    5  1  3  1
 -3.809178782445e-03    5  1  3  2
 -1.677742749549e-05    5  1  3  3
 -4.317570502310e-03    5  1  4  1
  1.788856680798e-05    5  1  4  2
 -7.328483242833e-06    5  1  4  3
  5.323931775408e-05    5  1  4  4
  2.212924704583e-02    5  1  5  1
  7.813692968400e-07    5  2  1  1
  1.792503366674e-05    5  2  2  1
  2.021938991867e-08    5  2  2  2
 -1.524873939107e-02    5  2  3  1
  9.032986470000e-05    5  2  3  2
 -5.295621528042e-05    5  2  3  3
  1.301460750179e-04    5  2  4  1
  1.152104093460e-02    5  2  4  2
  3.540639868526e-04    5  2  4  3
  5.216249760968e-05    5  2  4  4
 -1.532588358428e-05    5  2  5  1
  3.461420957833e-02    5  2  5  2
  3.864641957285e-05    5  3  1  1
  1.905794883946e-02    5  3  2  1
 -1.805084684658e-04    5  3  2  2
  8.675504452649e-06    5  3  3  1
  2.647014838231e-05    5  3  3  2
 -1.879125896459e-07    5  3  3  3
  5.048117980157e-05    5  3  4  1
  1.417206645011e-04    5  3  4  2
 -7.203468473486e-03    5  3  4  3
  1.418839567024e-04    5  3  4  4
 -1.353743751494e-05    5  3  5  1
 -1.037744584109e-04    5  3  5  2
  4.208977913839e-02    5  3  5  3
  8.634836345226e-03    5  4  1  1
 -1.480356709796e-04    5  4  2  1
 -2.304354268167e-02    5  4  2  2
 -4.315734469926e-05    5  4  3  1
 -4.958287581969e-04    5  4  3  2
  1.440869027872e-02    5  4  3  3
 -2.644823576547e-05    5  4  4  1
 -2.609434125434e-05    5  4  4  2
 -7.100320725831e-05    5  4  4  3
  9.928034381754e-07    5  4  4  4
  1.383239740011e-04    5  4  5  1
 -2.438027191609e-05    5  4  5  2
  2.427003402392e-05    5  4  5  3
  4.458953316868e-02    5  4  5  4
  9.710235507629e-01    5  5  1  1
  3.065037353991e-05    5  5  2  1
  9.460535738511e-01    5  5  2  2
  2.707879572294e-05    5  5  3  1
  2.075469014662e-04    5  5  3  2
  9.311025747113e-01    5  5  3  3
 -2.761278701518e-04    5  5  4  1
  4.873358996511e-05    5  5  4  2
 -4.869227125328e-05    5  5  4  3
  9.261062136463e-01    5  5  4  4
 -1.082563727875e-07    5  5  5  1
  4.599464573103e-09    5  5  5  2
  3.616588704707e-08    5  5  5  3
 -3.005625847594e-07    5  5  5  4
  1.015282022241e+00    5  5  5  5
 -2.324334639350e-05    6  1  1  1
  5.161776061771e-06    6  1  2  1
  4.027556528341e-05    6  1  2  2
 -1.040162833533e-05    6  1  3  1
 -1.195266304495e-03    6  1  3  2
 -2.879864289442e-05    6  1  3  3
 -1.355830886391e-03    6  1  4  1
  9.021023230348e-06    6  1  4  2
 -3.910038002077e-06    6  1  4  3
  2.546874272499e-05    6  1  4  4
  2.612003767891e-04    6  1  5  1
 -9.449213823399e-07    6  1  5  2
  1.083678095278e-06    6  1  5  3
 -6.175949638326e-06    6  1  5  4
 -5.491182602280e-06    6  1  5  5
  2.915804148135e-02    6  1  6  1
  5.436179635353e-06    6  2  1  1
  3.874498172833e-05    6  2  2  1
 -6.484387030988e-06    6  2  2  2
 -1.195309315599e-03    6  2  3  1
  5.900084320696e-06    6  2  3  2
 -2.438766552963e-06    6  2  3  3
  9.004824611434e-06    6  2  4  1
  9.033226884626e-04    6  2  4  2
  1.362501047153e-05    6  2  4  3
  1.708962944255e-06    6  2  4  4
 -9.505830513783e-07    6  2  5  1
  1.044162537113e-03    6  2  5  2
  3.257122963251e-05    6  2  5  3
  4.245404686221e-06    6  2  5  4
  3.261378272348e-06    6  2  5  5
 -5.233257204619e-08    6  2  6  1
  2.915809516747e-02    6  2  6  2
 -1.098355601512e-05    6  3  1  1
 -1.194518987704e-03    6  3  2  1
  5.307854187438e-06    6  3  2  2
 -3.031710186723e-05    6  3  3  1
 -2.712579534682e-06    6  3  3  2
  1.255596584722e-05    6  3  3  3
 -3.899213423734e-06    6  3  4  1
  1.361044400294e-05    6  3  4  2
  4.521169914271e-04    6  3  4  3
  1.981556563202e-06    6  3  4  4
  1.075484887469e-06    6  3  5  1
  3.252119711950e-05    6  3  5  2
 -1.302750977416e-03    6  3  5  3
  5.550647721176e-06    6  3  5  4
 -1.200320152592e-05    6  3  5  5
  3.586852098247e-08    6  3  6  1
  7.227132496673e-08    6  3  6  2
  2.916360448762e-02    6  3  6  3
 -1.360132138602e-03    6  4  1  1
  9.012071746311e-06    6  4  2  1
  8.975910601751e-04    6  4  2  2
 -3.912232316728e-06    6  4  3  1
  1.364645141435e-05    6  4  3  2
  4.475986940269e-04    6  4  3  3
  2.396084470235e-05    6  4  4  1
  1.422998808341e-06    6  4  4  2
  2.586460248514e-06    6  4  4  3
  1.156834043340e-03    6  4  4  4
 -6.194877638625e-06    6  4  5  1
  4.257671559182e-06    6  4  5  2
  5.561652869444e-06    6  4  5  3
 -7.435141443669e-04    6  4  5  4
 -1.167288812567e-03    6  4  5  5
  1.978401235770e-07    6  4  6  1
 -4.186749003008e-08    6  4  6  2
  1.138856947952e-08    6  4  6  3
  2.916282788058e-02    6  4  6  4
  2.822667432113e-04    6  5  1  1
 -9.611363844120e-07    6  5  2  1
  1.064654871747e-03    6  5  2  2
  1.072446175678e-06    6  5  3  1
  3.255110295319e-05    6  5  3  2
 -1.283209545288e-03    6  5  3  3
 -6.204427369656e-06    6  5  4  1
  4.259984259062e-06    6  5  4  2
  5.561405461178e-06    6  5  4  3
 -7.240007872041e-04    6  5  4  4
 -7.092045642362e-06    6  5  5  1
  2.982317993272e-06    6  5  5  2
 -1.142517287708e-05    6  5  5  3
 -1.162688433270e-03    6  5  5  4
  7.676367020850e-04    6  5  5  5
 -1.841040867076e-08    6  5  6  1
 -3.887756440169e-08    6  5  6  2
 -3.405781952340e-08    6  5  6  3
  2.255775428717e-06    6  5  6  4
  2.915699654495e-02    6  5  6  5
  6.869864058005e-01    6  6  1  1
 -9.178563957009e-08    6  6  2  1
  6.869865023989e-01    6  6  2  2
  6.288643210138e-08    6  6  3  1
  1.270559624242e-07    6  6  3  2
  6.869961336018e-01    6  6  3  3
  3.469486242567e-07    6  6  4  1
 -7.336375380369e-08    6  6  4  2
  2.000335641941e-08    6  6  4  3
  6.869947824144e-01    6  6  4  4
 -3.231817678285e-08    6  6  5  1
 -6.820662770414e-08    6  6  5  2
 -5.971536125578e-08    6  6  5  3
  3.948504672404e-06    6  6  5  4
  6.869845742942e-01    6  6  5  5
  5.359513502287e-07    6  6  6  1
  8.320288963143e-08    6  6  6  2
 -1.965051427914e-07    6  6  6  3
 -8.987272849510e-07    6  6  6  4
  5.816710285762e-06    6  6  6  5
  5.714598239225e-01    6  6  6  6
 -9.217143995431e+00    1  1  0  0
  1.240820721897e-07    2  1  0  0
 -9.217142015786e+00    2  2  0  0
  1.155188127997e-08    3  1  0  0
 -3.378250181878e-07    3  2  0  0
 -9.217142235743e+00    3  3  0  0
 -3.756725130521e-07    4  1  0  0
 -8.593734552905e-09    4  2  0  0
 -4.279927751627e-08    4  3  0  0
 -9.217141727599e+00    4  4  0  0
  6.762832434238e-08    5  1  0  0
 -1.211166819117e-08    5  2  0  0
  1.298375466872e-07    5  3  0  0
 -6.573292334268e-07    5  4  0  0
 -9.217143813101e+00    5  5  0  0
 -1.437115000073e-05    6  1  0  0
 -2.596355424865e-06    6  2  0  0
  5.498047967672e-06    6  3  0  0
  4.453777239439e-05    6  4  0  0
 -1.876525154678e-04    6  5  0  0
 -6.201016780559e+00    6  6  0  0
   -146.254749562770   0  0  0  0
