 &FCI NORB=6 ,NELEC=6 ,MS2=6,
  ORBSYM=1,1,1,1,1,1,
  ISYM=1,
 &END
  1.051795618200e+00    1  1  1  1
  3.848611999633e-03    2  1  1  1
  7.609812188468e-04    2  1  2  1
  9.047097710033e-02    2  2  1  1
 -1.587839884661e-05    2  2  2  1
  7.168319210777e-02    2  2  2  2
 -4.619365762988e-03    3  1  1  1
  2.173851252460e-03    3  1  2  1
 -1.312872644640e-04    3  1  2  2
  1.367974198430e-02    3  1  3  1
  2.262993090928e-02    3  2  1  1
 -2.117073134729e-05    3  2  2  1
 -4.051120953380e-04    3  2  2  2
 -8.726158063257e-05    3  2  3  1
  3.997851052973e-03    3  2  3  2
  1.933638154422e-01    3  3  1  1
  1.712074555211e-04    3  3  2  1
  6.395879060434e-02    3  3  2  2
 -3.441516976547e-04    3  3  3  1
  3.169603638469e-03    3  3  3  2
  8.412500689909e-02    3  3  3  3
  4.992616122680e-05    4  1  1  1
  7.768664190246e-04    4  1  2  1
 -3.394857092768e-05    4  1  2  2
  3.294533055278e-03    4  1  3  1
 -5.035116152726e-05    4  1  3  2
 -7.310780577864e-05    4  1  3  3
  9.992967104414e-04    4  1  4  1
  9.749734534296e-03    4  2  1  1
 -2.465162150356e-05    4  2  2  1
  3.727123239700e-05    4  2  2  2
 -1.023751621476e-04    4  2  3  1
 -9.287716077692e-05    4  2  3  2
  1.779719087753e-03    4  2  3  3
 -4.084318137282e-05    4  2  4  1
  4.383701284456e-03    4  2  4  2
  3.073024450577e-02    4  3  1  1
  3.382603218535e-06    4  3  2  1
  4.457594731566e-04    4  3  2  2
 -1.355702853943e-04    4  3  3  1
  9.939695021057e-04    4  3  3  2
  4.245046394174e-03    4  3  3  3
 -3.975915780386e-05    4  3  4  1
  9.248280505134e-05    4  3  4  2
  4.553453101240e-03    4  3  4  3
  9.295214466160e-02    4  4  1  1
  8.494078978326e-06    4  4  2  1
  6.313947220887e-02    4  4  2  2
  2.501138230950e-06    4  4  3  1
  4.719885834235e-04    4  4  3  2
  6.439025738255e-02    4  4  3  3
  1.524354020814e-06    4  4  4  1
  7.989886014018e-05    4  4  4  2
 -3.433616494120e-04    4  4  4  3
  7.149108339715e-02    4  4  4  4
  7.027612498463e-02    5  1  1  1
  1.175069079471e-03    5  1  2  1
  3.370000836378e-04    5  1  2  2
 -1.333666188423e-02    5  1  3  1
  1.766324700551e-04    5  1  3  2
  1.002301319028e-03    5  1  3  3
 -1.230474740877e-03    5  1  4  1
  2.296461244686e-04    5  1  4  2
  3.216544384218e-04    5  1  4  3
  1.590844644038e-04    5  1  4  4
  1.541703756715e-01    5  1  5  1
  2.738859276351e-03    5  2  1  1
 -9.209083403713e-05    5  2  2  1
 -1.132556343774e-05    5  2  2  2
 -3.158737858758e-04    5  2  3  1
  2.736618733264e-05    5  2  3  2
  1.517956649138e-04    5  2  3  3
 -1.292120178913e-04    5  2  4  1
  2.460052999709e-05    5  2  4  2
  3.953692807739e-05    5  2  4  3
 -4.727853991283e-05    5  2  4  4
 -7.279143796960e-03    5  2  5  1
  9.762941912187e-04    5  2  5  2
 -1.765161355864e-02    5  3  1  1
 -8.900700408000e-04    5  3  2  1
 -1.210824487371e-04    5  3  2  2
 -4.742610525269e-04    5  3  3  1
 -2.480965410451e-04    5  3  3  2
 -8.508024349878e-04    5  3  3  3
 -5.284874532044e-04    5  3  4  1
 -9.723501225435e-05    5  3  4  2
 -2.605634590635e-04    5  3  4  3
 -2.262546300479e-04    5  3  4  4
 -3.709695057316e-02    5  3  5  1
  3.042018686533e-03    5  3  5  2
  1.584397535518e-02    5  3  5  3
 -1.459008133020e-03    5  4  1  1
 -1.866338948317e-04    5  4  2  1
 -4.546393531672e-05    5  4  2  2
 -1.918113266021e-04    5  4  3  1
 -4.400515287711e-05    5  4  3  2
 -1.217885280679e-04    5  4  3  3
 -1.771412412251e-04    5  4  4  1
 -8.931944738077e-06    5  4  4  2
 -5.014997869794e-05    5  4  4  3
 -7.719038936456e-05    5  4  4  4
 -1.002582485659e-02    5  4  5  1
  1.053136935860e-03    5  4  5  2
  4.165594097753e-03    5  4  5  3
  1.342690916391e-03    5  4  5  4
  8.744699474680e-01    5  5  1  1
 -2.870580872837e-03    5  5  2  1
  8.983447720387e-02    5  5  2  2
 -1.355229556473e-02    5  5  3  1
  2.109920725381e-02    5  5  3  2
  1.846272251543e-01    5  5  3  3
 -4.681617030439e-03    5  5  4  1
  9.159685511486e-03    5  5  4  2
  2.856032220466e-02    5  5  4  3
  9.212824188956e-02    5  5  4  4
 -6.874294194234e-02    5  5  5  1
  7.650156421708e-03    5  5  5  2
  2.793819633921e-02    5  5  5  3
  8.101995854236e-03    5  5  5  4
  9.580586458844e-01    5  5  5  5
 -9.533720630269e-03    6  1  1  1
  5.112201086075e-03    6  1  2  1
 -2.924844181938e-04    6  1  2  2
  3.244302933438e-02    6  1  3  1
 -1.492176821852e-04    6  1  3  2
 -8.341073236389e-04    6  1  3  3
  7.773253684843e-03    6  1  4  1
 -2.061265851092e-04    6  1  4  2
 -2.698297953722e-04    6  1  4  3
  1.334448470215e-05    6  1  4  4
 -3.363296993049e-02    6  1  5  1
 -5.064974625020e-04    6  1  5  2
 -5.022295386578e-04    6  1  5  3
 -2.205789092880e-04    6  1  5  4
 -3.063651475492e-02    6  1  5  5
  7.737120003958e-02    6  1  6  1
  5.159179196489e-02    6  2  1  1
 -5.834062239997e-06    6  2  2  1
  1.849002110257e-03    6  2  2  2
 -9.802089224883e-05    6  2  3  1
  1.928244238099e-04    6  2  3  2
  8.553090551025e-03    6  2  3  3
 -7.363249648643e-05    6  2  4  1
  3.344675682992e-04    6  2  4  2
  1.977271793693e-03    6  2  4  3
  2.460681567884e-03    6  2  4  4
  4.843006468681e-05    6  2  5  1
  5.926739363476e-05    6  2  5  2
 -4.342355420962e-04    6  2  5  3
 -6.719969128631e-05    6  2  5  4
  4.841237034101e-02    6  2  5  5
 -1.234522366812e-04    6  2  6  1
  3.986360926918e-03    6  2  6  2
  2.807569630949e-01    6  3  1  1
  4.695568818680e-04    6  3  2  1
  1.139690657552e-02    6  3  2  2
 -8.033145856898e-04    6  3  3  1
  7.330710715230e-03    6  3  3  2
  4.237189051123e-02    6  3  3  3
 -1.158021565577e-04    6  3  4  1
  3.190802013975e-03    6  3  4  2
  9.819626366026e-03    6  3  4  3
  1.228200986906e-02    6  3  4  4
  2.141647917668e-03    6  3  5  1
  4.533050708652e-04    6  3  5  2
 -1.821720699759e-03    6  3  5  3
 -2.034575947448e-04    6  3  5  4
  2.605229987108e-01    6  3  5  5
 -1.934058529201e-03    6  3  6  1
  1.688518407654e-02    6  3  6  2
  9.118732747310e-02    6  3  6  3
  7.225612511169e-02    6  4  1  1
  5.725330292082e-05    6  4  2  1
  3.068045635336e-03    6  4  2  2
 -1.782978558922e-04    6  4  3  1
  2.034078464206e-03    6  4  3  2
  1.178991100218e-02    6  4  3  3
 -3.563326044510e-05    6  4  4  1
  6.504556490961e-04    6  4  4  2
  1.377349719373e-03    6  4  4  3
  2.699678501896e-03    6  4  4  4
  4.074364469608e-04    6  4  5  1
  9.358909757472e-05    6  4  5  2
 -5.402028285300e-04    6  4  5  3
 -1.294582092032e-04    6  4  5  4
  6.744046858527e-02    6  4  5  5
 -3.431115259417e-04    6  4  6  1
  4.482997919658e-03    6  4  6  2
  2.347719621966e-02    6  4  6  3
  6.886372116972e-03    6  4  6  4
 -4.438871502258e-02    6  5  1  1
 -2.023301500981e-03    6  5  2  1
 -1.712745031465e-04    6  5  2  2
 -6.944184708771e-04    6  5  3  1
 -6.092280219623e-04    6  5  3  2
 -2.013762735098e-03    6  5  3  3
 -1.131227146039e-03    6  5  4  1
 -2.483584468920e-04    6  5  4  2
 -6.705661399909e-04    6  5  4  3
 -4.029433913740e-04    6  5  4  4
 -8.807685523797e-02    6  5  5  1
  6.999670734171e-03    6  5  5  2
  3.736054902457e-02    6  5  5  3
  9.748600777306e-03    6  5  5  4
  6.517186874841e-02    6  5  5  5
 -2.560738117125e-04    6  5  6  1
 -1.049303833398e-03    6  5  6  2
 -4.452676142167e-03    6  5  6  3
 -1.346774303660e-03    6  5  6  4
  8.848664222666e-02    6  5  6  5
  7.234930051085e-01    6  6  1  1
  1.190181144175e-03    6  6  2  1
  8.409873158981e-02    6  6  2  2
 -2.050551173455e-03    6  6  3  1
  1.762475077913e-02    6  6  3  2
  1.628623339730e-01    6  6  3  3
 -2.303712761794e-04    6  6  4  1
  7.547580311239e-03    6  6  4  2
  2.374648282497e-02    6  6  4  3
  8.615884375280e-02    6  6  4  4
  5.163231138889e-03    6  6  5  1
  1.104941192853e-03    6  6  5  2
 -4.041151279745e-03    6  6  5  3
 -4.434030001914e-04    6  6  5  4
  6.758001082561e-01    6  6  5  5
 -4.900040178552e-03    6  6  6  1
  3.970475583132e-02    6  6  6  2
  2.133356688205e-01    6  6  6  3
  5.533313797348e-02    6  6  6  4
 -9.963930660629e-03    6  6  6  5
  5.637872464337e-01    6  6  6  6
 -7.730954039107e+00    1  1  0  0
 -8.222980426874e-03    2  1  0  0
 -5.212242011111e-01    2  2  0  0
 -3.215094948959e-03    3  1  0  0
 -1.152817791789e-01    3  2  0  0
 -1.033655492398e+00    3  3  0  0
 -6.448901317818e-04    4  1  0  0
 -5.034523842635e-02    4  2  0  0
 -1.553640582131e-01    4  3  0  0
 -5.339782286591e-01    4  4  0  0
 -9.987894188289e-02    5  1  0  0
 -5.930525672801e-03    5  2  0  0
  3.271842717186e-02    5  3  0  0
  4.800958868260e-03    5  4  0  0
 -5.834697782546e+00    5  5  0  0
 -9.952171895095e-03    6  1  0  0
 -2.705587365227e-01    6  2  0  0
 -1.437366495295e+00    6  3  0  0
 -3.750777342859e-01    6  4  0  0
  6.915154265654e-02    6  5  0  0
 -3.721736482850e+00    6  6  0  0
    -62.289424623249   0  0  0  0
