#INFO: **** input file is /projects/bamu3429/BENCHMARK/fresh_atoms/MRPT/vtz/atoms/Cr_0/mrpt.py ****
import json
from pyscf import gto,scf,mcscf, fci, lo, ci, cc
from pyscf.scf import ROHF, UHF,ROKS
import numpy as np
import pandas as pd

# THIS IS WERE IT STARTS ====================================

df=json.load(open("../../../trail.json"))

spins={'Sc':1, 'Ti':2, 'V':3, 'Cr':6, 'Mn':5, 'Fe':4, 'Cu':1}

nd={'Sc':(1,0), 'Ti':(2,0), 'V':(3,0), 'Cr':(5,0), 'Mn':(5,0), 'Fe':(5,1), 'Cu':(5,5)}

cas={'Sc':3, 'Ti':4, 'V':5, 'Cr':6, 'Mn':7, 'Fe':8, 'Cu':11}

datacsv={}
for nm in ['atom','charge','method','basis','pseudopotential','hf',
           'totalenergy','totalenergy-stocherr','totalenergy-syserr']:
  datacsv[nm]=[]

basis='vtz'
el='Cr'
charge=0

mol=gto.Mole()
mol.ecp={}
mol.basis={}
mol.ecp[el]=gto.basis.parse_ecp(df[el]['ecp'])
mol.basis[el]=gto.basis.parse(df[el][basis])
mol.charge=charge
if el == 'Cr' or el == 'Cu':
  mol.spin=spins[el]-charge
else:
  mol.spin=spins[el]+charge
mol.build(atom="%s 0. 0. 0."%el,verbose=4)

m=ROHF(mol)
m.level_shift=1000.0
dm=m.from_chk("../../../../HF/atoms/"+el+basis+str(charge)+".chk")
hf=m.kernel(dm)
m.analyze()

from pyscf.shciscf import shci
mc = shci.SHCISCF(m, 6, cas[el]-charge)
#mc.fcisolver.conv_tol = 1e-14
mc.fcisolver.mpiprefix="mpirun -np 28"
mc.fcisolver.num_thrds=12
mc.verbose = 4
cas=mc.kernel()[0]
 
from pyscf.icmpspt import icmpspt
pt=icmpspt.icmpspt(mc,rdmM=500, PTM=1000,\
                          pttype="MRLCC",\
                          third_order=True,\
                          fully_ic=True,\
                          do_dm4=True)

datacsv['atom'].append(el)
datacsv['charge'].append(charge)
datacsv['method'].append('MRPT')
datacsv['basis'].append(basis)
datacsv['pseudopotential'].append('trail')
datacsv['hf'].append(hf)
datacsv['totalenergy'].append(cas+pt)
datacsv['totalenergy-stocherr'].append(0.0)
datacsv['totalenergy-syserr'].append(0.0)
pd.DataFrame(datacsv).to_csv(el+".csv",index=False)

#INFO: ******************** input file end ********************


System: ('Linux', 'bnode0304.rc.int.colorado.edu', '3.10.0-514.41.1.el7.x86_64', '#1 SMP Wed Jan 17 10:26:16 EST 2018', 'x86_64', 'x86_64')  Threads 28
Python 2.7.11 (default, Mar 22 2016, 01:42:54) 
[GCC Intel(R) C++ gcc 4.8 mode]
numpy 1.11.1  scipy 0.17.1
Date: Thu Mar 29 17:38:47 2018
PySCF version 1.4
PySCF path  /projects/bamu3429/softwares/pyscf_uptodate/pyscf
GIT ORIG_HEAD e2292e6edec2b0e0024c21b81de03db1d7bd4121
GIT HEAD      ref: refs/heads/master
GIT master branch  f3591ef22170896a4cdc2aadaa6f5da388ffcadb

[INPUT] VERBOSE 4
[INPUT] num atoms = 1
[INPUT] num electrons = 14
[INPUT] charge = 0
[INPUT] spin (= nelec alpha-beta = 2S) = 6
[INPUT] symmetry False subgroup None
[INPUT]  1 Cr     0.000000000000   0.000000000000   0.000000000000 AA    0.000000000000   0.000000000000   0.000000000000 Bohr
[INPUT] ---------------- BASIS SET ---------------- 
[INPUT] l, kappa, [nprim/nctr], expnt,             c_1 c_2 ...
[INPUT] Cr
[INPUT] 0    0    [12   /1   ]  41.45590127       0.010332
                                22.20089455       -0.091393
                                12.37022616       0.412444
                                7.15443966        -0.722409
                                3.63012556        0.039693
                                1.88942247        0.321055
                                1.04381355        0.652182
                                0.47307333        0.264443
                                0.22628807        -0.008646
                                0.10750747        0.012188
                                0.05101028        -0.00242
                                0.0242372         0.001733
[INPUT] 0    0    [12   /1   ]  41.45590127       -0.001971
                                22.20089455       0.019152
                                12.37022616       -0.094562
                                7.15443966        0.178991
                                3.63012556        -0.015716
                                1.88942247        -0.084882
                                1.04381355        -0.243744
                                0.47307333        -0.214624
                                0.22628807        0.055092
                                0.10750747        0.415903
                                0.05101028        0.543473
                                0.0242372         0.170131
[INPUT] 0    0    [12   /1   ]  41.45590127       -0.005985
                                22.20089455       0.069637
                                12.37022616       -0.403654
                                7.15443966        0.899468
                                3.63012556        -0.19655
                                1.88942247        -1.358682
                                1.04381355        -0.066602
                                0.47307333        0.748011
                                0.22628807        0.743168
                                0.10750747        0.120335
                                0.05101028        -0.554574
                                0.0242372         -0.284337
[INPUT] 0    0    [12   /1   ]  41.45590127       -0.005431
                                22.20089455       0.075825
                                12.37022616       -0.506871
                                7.15443966        1.314927
                                3.63012556        -0.7377
                                1.88942247        -2.271634
                                1.04381355        1.711851
                                0.47307333        1.720924
                                0.22628807        -1.434003
                                0.10750747        -1.046849
                                0.05101028        0.595081
                                0.0242372         0.606245
[INPUT] 0    0    [1    /1   ]  0.0242372            1
[INPUT] 0    0    [1    /1   ]  0.01151614           1
[INPUT] 1    0    [12   /1   ]  28.88080716       -0.002973
                                13.19380569       0.044202
                                7.25722596        -0.232476
                                4.84342676        0.167654
                                2.76949909        0.179744
                                1.50719356        0.46058
                                0.72516508        0.338218
                                0.36385743        0.097984
                                0.16204617        0.012145
                                0.07447705        -0.000948
                                0.03422994        0.000821
                                0.01573221        -0.00022
[INPUT] 1    0    [12   /1   ]  28.88080716       0.000536
                                13.19380569       -0.009363
                                7.25722596        0.054752
                                4.84342676        -0.042977
                                2.76949909        -0.049244
                                1.50719356        -0.128712
                                0.72516508        -0.11682
                                0.36385743        0.044517
                                0.16204617        0.322192
                                0.07447705        0.482878
                                0.03422994        0.275764
                                0.01573221        0.025472
[INPUT] 1    0    [12   /1   ]  28.88080716       -0.000428
                                13.19380569       0.034429
                                7.25722596        -0.307446
                                4.84342676        0.24996
                                2.76949909        0.789151
                                1.50719356        0.129313
                                0.72516508        -0.921684
                                0.36385743        -0.378847
                                0.16204617        0.566809
                                0.07447705        0.440905
                                0.03422994        0.024535
                                0.01573221        0.005078
[INPUT] 1    0    [12   /1   ]  28.88080716       0.002227
                                13.19380569       0.046024
                                7.25722596        -0.727345
                                4.84342676        1.251481
                                2.76949909        1.00182
                                1.50719356        -1.701806
                                0.72516508        -0.622978
                                0.36385743        1.581831
                                0.16204617        -0.060905
                                0.07447705        -0.667464
                                0.03422994        -0.031147
                                0.01573221        -0.01129
[INPUT] 1    0    [1    /1   ]  0.01573221           1
[INPUT] 1    0    [1    /1   ]  0.00723058           1
[INPUT] 2    0    [10   /1   ]  46.50908408       0.000358
                                21.60133229       -0.010512
                                11.03652449       0.11118
                                4.54288797        0.164184
                                2.18180243        0.267436
                                1.04009058        0.310836
                                0.48262909        0.28353
                                0.21570372        0.173079
                                0.10059873        0.057279
                                0.04653409        0.00937
[INPUT] 2    0    [10   /1   ]  46.50908408       0.000725
                                21.60133229       0.005694
                                11.03652449       -0.104091
                                4.54288797        -0.217444
                                2.18180243        -0.413534
                                1.04009058        -0.07805
                                0.48262909        0.290464
                                0.21570372        0.417258
                                0.10059873        0.237439
                                0.04653409        0.051282
[INPUT] 2    0    [10   /1   ]  46.50908408       -0.003236
                                21.60133229       0.00626
                                11.03652449       0.082765
                                4.54288797        0.409918
                                2.18180243        0.374551
                                1.04009058        -0.692379
                                0.48262909        -0.433198
                                0.21570372        0.307071
                                0.10059873        0.45679
                                0.04653409        0.105679
[INPUT] 2    0    [1    /1   ]  0.04653409           1
[INPUT] 2    0    [1    /1   ]  0.02152533           1
[INPUT] 3    0    [1    /1   ]  2.951278             1
[INPUT] 3    0    [1    /1   ]  0.820301             1
[INPUT] 3    0    [1    /1   ]  0.22800079           1
[INPUT] 4    0    [1    /1   ]  2.625115             1
[INPUT] 4    0    [1    /1   ]  0.72964472           1
nuclear repulsion = 0
number of shells = 22
number of NR pGTOs = 399
number of NR cGTOs = 88
basis = {'Cr': [[0, [41.45590127, 0.010332], [22.20089455, -0.091393], [12.37022616, 0.412444], [7.15443966, -0.722409], [3.63012556, 0.039693], [1.88942247, 0.321055], [1.04381355, 0.652182], [0.47307333, 0.264443], [0.22628807, -0.008646], [0.10750747, 0.012188], [0.05101028, -0.00242], [0.0242372, 0.001733]], [0, [41.45590127, -0.001971], [22.20089455, 0.019152], [12.37022616, -0.094562], [7.15443966, 0.178991], [3.63012556, -0.015716], [1.88942247, -0.084882], [1.04381355, -0.243744], [0.47307333, -0.214624], [0.22628807, 0.055092], [0.10750747, 0.415903], [0.05101028, 0.543473], [0.0242372, 0.170131]], [0, [41.45590127, -0.005985], [22.20089455, 0.069637], [12.37022616, -0.403654], [7.15443966, 0.899468], [3.63012556, -0.19655], [1.88942247, -1.358682], [1.04381355, -0.066602], [0.47307333, 0.748011], [0.22628807, 0.743168], [0.10750747, 0.120335], [0.05101028, -0.554574], [0.0242372, -0.284337]], [0, [41.45590127, -0.005431], [22.20089455, 0.075825], [12.37022616, -0.506871], [7.15443966, 1.314927], [3.63012556, -0.7377], [1.88942247, -2.271634], [1.04381355, 1.711851], [0.47307333, 1.720924], [0.22628807, -1.434003], [0.10750747, -1.046849], [0.05101028, 0.595081], [0.0242372, 0.606245]], [0, [0.0242372, 1.0]], [0, [0.01151614, 1.0]], [1, [28.88080716, -0.002973], [13.19380569, 0.044202], [7.25722596, -0.232476], [4.84342676, 0.167654], [2.76949909, 0.179744], [1.50719356, 0.46058], [0.72516508, 0.338218], [0.36385743, 0.097984], [0.16204617, 0.012145], [0.07447705, -0.000948], [0.03422994, 0.000821], [0.01573221, -0.00022]], [1, [28.88080716, 0.000536], [13.19380569, -0.009363], [7.25722596, 0.054752], [4.84342676, -0.042977], [2.76949909, -0.049244], [1.50719356, -0.128712], [0.72516508, -0.11682], [0.36385743, 0.044517], [0.16204617, 0.322192], [0.07447705, 0.482878], [0.03422994, 0.275764], [0.01573221, 0.025472]], [1, [28.88080716, -0.000428], [13.19380569, 0.034429], [7.25722596, -0.307446], [4.84342676, 0.24996], [2.76949909, 0.789151], [1.50719356, 0.129313], [0.72516508, -0.921684], [0.36385743, -0.378847], [0.16204617, 0.566809], [0.07447705, 0.440905], [0.03422994, 0.024535], [0.01573221, 0.005078]], [1, [28.88080716, 0.002227], [13.19380569, 0.046024], [7.25722596, -0.727345], [4.84342676, 1.251481], [2.76949909, 1.00182], [1.50719356, -1.701806], [0.72516508, -0.622978], [0.36385743, 1.581831], [0.16204617, -0.060905], [0.07447705, -0.667464], [0.03422994, -0.031147], [0.01573221, -0.01129]], [1, [0.01573221, 1.0]], [1, [0.00723058, 1.0]], [2, [46.50908408, 0.000358], [21.60133229, -0.010512], [11.03652449, 0.11118], [4.54288797, 0.164184], [2.18180243, 0.267436], [1.04009058, 0.310836], [0.48262909, 0.28353], [0.21570372, 0.173079], [0.10059873, 0.057279], [0.04653409, 0.00937]], [2, [46.50908408, 0.000725], [21.60133229, 0.005694], [11.03652449, -0.104091], [4.54288797, -0.217444], [2.18180243, -0.413534], [1.04009058, -0.07805], [0.48262909, 0.290464], [0.21570372, 0.417258], [0.10059873, 0.237439], [0.04653409, 0.051282]], [2, [46.50908408, -0.003236], [21.60133229, 0.00626], [11.03652449, 0.082765], [4.54288797, 0.409918], [2.18180243, 0.374551], [1.04009058, -0.692379], [0.48262909, -0.433198], [0.21570372, 0.307071], [0.10059873, 0.45679], [0.04653409, 0.105679]], [2, [0.04653409, 1.0]], [2, [0.02152533, 1.0]], [3, [2.951278, 1.0]], [3, [0.820301, 1.0]], [3, [0.22800079, 1.0]], [4, [2.625115, 1.0]], [4, [0.72964472, 1.0]]]}
ecp = {'Cr': [10, [[-1, [[], [[13.07675203, 14.0]], [[15.15807582, 1258.1555038], [4.62785686, -98.60998187], [15.41136599, -6552.46055066], [15.38690637, 5353.09061557]], [[5.24897308, 183.07452839]]]], [0, [[], [], [[9.77680844, -91901.2080948], [9.95980111, 96320.14803227], [8.62275214, 3928.3135917], [12.29288144, -10977.62459544], [18.41316592, -1741.60409682], [16.38541961, 4413.26493033]], []]], [1, [[], [], [[12.00099996, -22156.17142851], [11.46524435, 21551.07876111], [16.23852226, 3703.78784703], [18.43861108, -1424.18632323], [8.88877941, -1964.93568469], [7.52644784, 317.50498882]], []]], [2, [[], [], [[11.1066837, -5435.29666496], [8.49801115, 7350.69608766], [12.28065533, 2443.80334995], [8.1885354, -5401.76770998], [14.34306836, 3881.23075486], [15.24784181, -2855.87137953]], []]]]]}
CPU time:         3.71


******** <class 'pyscf.scf.rohf.ROHF'> flags ********
method = ROHF
initial guess = minao
damping factor = 0
level shift factor = 1000.0
DIIS = <class 'pyscf.scf.diis.CDIIS'>
DIIS start cycle = 1
DIIS space = 8
SCF tol = 1e-09
SCF gradient tol = None
max. SCF cycles = 50
direct_scf = True
direct_scf_tol = 1e-13
chkfile to save SCF result = /projects/bamu3429/BENCHMARK/fresh_atoms/MRPT/vtz/atoms/Cr_0/tmpWgbxK7
max_memory 4000 MB (current use 115 MB)
num. doubly occ = 4  num. singly occ = 6
Set gradient conv threshold to 3.16228e-05
init E= -86.2166808775214
  HOMO = 500.049812490053  LUMO = 1000.01458167169
cycle= 1 E= -86.2166808775217  delta_E= -3.27e-13  |g|= 1.55e-05  |ddm|= 7.06e-08

WARN: HOMO 0.0498124886173766 >= LUMO 0.014581671684805

Extra cycle  E= -86.216680875419  delta_E= 2.1e-09  |g|= 2.69e-05  |ddm|= 0.000183
converged SCF energy = -86.216680875419
**** MO energy ****
                Roothaan           | alpha              | beta
MO #1   energy= -3.40782980540187  | -3.59375564146915  | -3.22190396996946  occ= 2
MO #2   energy= -2.10266513727887  | -2.3282957354835   | -1.87703453907424  occ= 2
MO #3   energy= -2.10266513727887  | -2.3282957354835   | -1.87703453907424  occ= 2
MO #4   energy= -2.10266513727887  | -2.3282957354835   | -1.87703453907424  occ= 2
MO #5   energy= -0.0791498911729611 | -0.225191564358187 | 0.0668908842019267 occ= 1
MO #6   energy= 0.014581671684805  | 0.0134813905170931 | 0.0156819528525209 occ= 0
MO #7   energy= 0.0145816716848069 | 0.0134813905170933 | 0.0156819528525211 occ= 0
MO #8   energy= 0.0145816716848159 | 0.0134813905170934 | 0.0156819528525212 occ= 0
MO #9   energy= 0.0293389639135978 | 0.0267216166931489 | 0.031956987250212  occ= 0
MO #10  energy= 0.0468806406680266 | 0.0367257974406719 | 0.057035483895386  occ= 0
MO #11  energy= 0.0468806406680266 | 0.036725797440671  | 0.0570354838953845 occ= 0
MO #12  energy= 0.0468806406680307 | 0.0367257974406723 | 0.0570354838953858 occ= 0
MO #13  energy= 0.0498124886173077 | -0.367730153090165 | 0.467354452160176  occ= 1
MO #14  energy= 0.0498124886173088 | -0.367730153090163 | 0.467354452160184  occ= 1
MO #15  energy= 0.0498124886173725 | -0.367730153090104 | 0.467354452160252  occ= 1
MO #16  energy= 0.0498124886173741 | -0.367730153090104 | 0.467354452160253  occ= 1
MO #17  energy= 0.0498124886173766 | -0.3677301530901   | 0.467354452160254  occ= 1
MO #18  energy= 0.0665338240128897 | 0.0655801198798697 | 0.067489180193914  occ= 0
MO #19  energy= 0.066533824012891  | 0.0655801198798699 | 0.067489180193909  occ= 0
MO #20  energy= 0.066533824012892  | 0.0655801198798703 | 0.0674891801939094 occ= 0
MO #21  energy= 0.0665338240128953 | 0.0655801198798697 | 0.0674891801939073 occ= 0
MO #22  energy= 0.0665338240128956 | 0.06558011987987   | 0.0674891801939092 occ= 0
MO #23  energy= 0.196234141267255  | 0.157428723550836  | 0.235039558983676  occ= 0
MO #24  energy= 0.196234141267257  | 0.157428723550835  | 0.235039558983675  occ= 0
MO #25  energy= 0.196234141267258  | 0.157428723550833  | 0.235039558983672  occ= 0
MO #26  energy= 0.217363592636251  | 0.204349138487078  | 0.230377287949355  occ= 0
MO #27  energy= 0.217363592636254  | 0.20434913848708   | 0.230377287949362  occ= 0
MO #28  energy= 0.217363592636258  | 0.20434913848708   | 0.230377287949362  occ= 0
MO #29  energy= 0.217363592636261  | 0.204349138487083  | 0.230377287949367  occ= 0
MO #30  energy= 0.217363592636261  | 0.204349138487083  | 0.230377287949369  occ= 0
MO #31  energy= 0.237825918679091  | 0.216851477874627  | 0.258800679232334  occ= 0
MO #32  energy= 0.872628255074263  | 0.844045771862631  | 0.901210738285897  occ= 0
MO #33  energy= 0.872628255074264  | 0.844045771862632  | 0.901210738285898  occ= 0
MO #34  energy= 0.872628255074264  | 0.844045771862631  | 0.901210738285896  occ= 0
MO #35  energy= 0.872628255074265  | 0.844045771862629  | 0.901210738285895  occ= 0
MO #36  energy= 0.872628255074266  | 0.844045771862631  | 0.901210738285897  occ= 0
MO #37  energy= 0.872628255074266  | 0.844045771862635  | 0.9012107382859    occ= 0
MO #38  energy= 0.872628255074268  | 0.844045771862633  | 0.901210738285898  occ= 0
MO #39  energy= 0.969984127838669  | 0.900348926700516  | 1.0396191038318    occ= 0
MO #40  energy= 0.969984127838671  | 0.900348926700513  | 1.0396191038318    occ= 0
MO #41  energy= 0.969984127838678  | 0.900348926700518  | 1.0396191038318    occ= 0
MO #42  energy= 0.969984127838722  | 0.900348926700561  | 1.03961910383185   occ= 0
MO #43  energy= 0.969984127838724  | 0.900348926700564  | 1.03961910383185   occ= 0
MO #44  energy= 1.01985265340984   | 0.978703232057913  | 1.06100196547198   occ= 0
MO #45  energy= 1.74830444346766   | 1.68359701643948   | 1.81301187049583   occ= 0
MO #46  energy= 1.74830444346766   | 1.68359701643949   | 1.81301187049584   occ= 0
MO #47  energy= 1.74830444346766   | 1.68359701643949   | 1.81301187049584   occ= 0
MO #48  energy= 2.92358296112352   | 2.83303863113647   | 3.01412729111058   occ= 0
MO #49  energy= 2.92358296112352   | 2.83303863113647   | 3.01412729111058   occ= 0
MO #50  energy= 2.92358296112353   | 2.83303863113647   | 3.01412729111058   occ= 0
MO #51  energy= 2.92358296112353   | 2.83303863113647   | 3.01412729111058   occ= 0
MO #52  energy= 2.92358296112353   | 2.83303863113648   | 3.01412729111059   occ= 0
MO #53  energy= 2.92358296112353   | 2.83303863113648   | 3.01412729111058   occ= 0
MO #54  energy= 2.92358296112353   | 2.83303863113648   | 3.01412729111058   occ= 0
MO #55  energy= 3.43695301727305   | 3.39697997289274   | 3.47692606165336   occ= 0
MO #56  energy= 3.43695301727305   | 3.39697997289274   | 3.47692606165336   occ= 0
MO #57  energy= 3.43695301727306   | 3.39697997289275   | 3.47692606165336   occ= 0
MO #58  energy= 3.43695301727306   | 3.39697997289274   | 3.47692606165336   occ= 0
MO #59  energy= 3.43695301727306   | 3.39697997289275   | 3.47692606165337   occ= 0
MO #60  energy= 3.43695301727306   | 3.39697997289275   | 3.47692606165337   occ= 0
MO #61  energy= 3.43695301727306   | 3.39697997289275   | 3.47692606165337   occ= 0
MO #62  energy= 3.43695301727306   | 3.39697997289275   | 3.47692606165337   occ= 0
MO #63  energy= 3.43695301727306   | 3.39697997289275   | 3.47692606165337   occ= 0
MO #64  energy= 3.72803812500522   | 3.63719928815015   | 3.818876971958     occ= 0
MO #65  energy= 3.72803812500522   | 3.63719928815016   | 3.81887697195801   occ= 0
MO #66  energy= 3.72803812500526   | 3.63719928815019   | 3.81887697195804   occ= 0
MO #67  energy= 3.72803812500526   | 3.63719928815019   | 3.81887697195804   occ= 0
MO #68  energy= 3.72803812500527   | 3.63719928815019   | 3.81887697195805   occ= 0
MO #69  energy= 4.71616001939905   | 4.65215723951944   | 4.78016281114876   occ= 0
MO #70  energy= 6.76065754870338   | 6.69666686621192   | 6.82464823119485   occ= 0
MO #71  energy= 6.76065754870338   | 6.69666686621191   | 6.82464823119484   occ= 0
MO #72  energy= 6.76065754870339   | 6.69666686621192   | 6.82464823119485   occ= 0
MO #73  energy= 8.94810457259372   | 8.84316552455741   | 9.05304362063004   occ= 0
MO #74  energy= 8.94810457259373   | 8.84316552455741   | 9.05304362063004   occ= 0
MO #75  energy= 8.94810457259373   | 8.84316552455742   | 9.05304362063005   occ= 0
MO #76  energy= 8.94810457259373   | 8.8431655245574    | 9.05304362063004   occ= 0
MO #77  energy= 8.94810457259373   | 8.84316552455742   | 9.05304362063006   occ= 0
MO #78  energy= 8.94810457259374   | 8.84316552455741   | 9.05304362063005   occ= 0
MO #79  energy= 8.94810457259374   | 8.84316552455743   | 9.05304362063007   occ= 0
MO #80  energy= 11.75596143974     | 11.6848846222976   | 11.8270382571825   occ= 0
MO #81  energy= 11.75596143974     | 11.6848846222976   | 11.8270382571825   occ= 0
MO #82  energy= 11.75596143974     | 11.6848846222976   | 11.8270382571825   occ= 0
MO #83  energy= 11.75596143974     | 11.6848846222976   | 11.8270382571825   occ= 0
MO #84  energy= 11.75596143974     | 11.6848846222976   | 11.8270382571825   occ= 0
MO #85  energy= 11.75596143974     | 11.6848846222976   | 11.8270382571825   occ= 0
MO #86  energy= 11.75596143974     | 11.6848846222976   | 11.8270382571825   occ= 0
MO #87  energy= 11.75596143974     | 11.6848846222976   | 11.8270382571825   occ= 0
MO #88  energy= 11.75596143974     | 11.6848846222976   | 11.8270382571825   occ= 0
 ** Mulliken pop on meta-lowdin orthogonal AOs  **
 ** Mulliken pop  **
pop of  0Cr 3s        1.99996
pop of  0Cr 4s        0.99847
pop of  0Cr 5s        0.00078
pop of  0Cr 6s        0.00031
pop of  0Cr 7s        0.00026
pop of  0Cr 8s        0.00022
pop of  0Cr 3px       1.99989
pop of  0Cr 3py       1.99989
pop of  0Cr 3pz       1.99989
pop of  0Cr 4px       0.00009
pop of  0Cr 4py       0.00009
pop of  0Cr 4pz       0.00009
pop of  0Cr 5px       0.00002
pop of  0Cr 5py       0.00002
pop of  0Cr 5pz       0.00002
pop of  0Cr 6px       0.00001
pop of  0Cr 6py       0.00001
pop of  0Cr 6pz       0.00001
pop of  0Cr 7px       0.00000
pop of  0Cr 7py       0.00000
pop of  0Cr 7pz       0.00000
pop of  0Cr 8px       0.00000
pop of  0Cr 8py       0.00000
pop of  0Cr 8pz       0.00000
pop of  0Cr 3dxy      0.99815
pop of  0Cr 3dyz      0.99815
pop of  0Cr 3dz^2     0.99815
pop of  0Cr 3dxz      0.99815
pop of  0Cr 3dx2-y2    0.99815
pop of  0Cr 4dxy      0.00141
pop of  0Cr 4dyz      0.00141
pop of  0Cr 4dz^2     0.00141
pop of  0Cr 4dxz      0.00141
pop of  0Cr 4dx2-y2    0.00141
pop of  0Cr 5dxy      0.00010
pop of  0Cr 5dyz      0.00010
pop of  0Cr 5dz^2     0.00010
pop of  0Cr 5dxz      0.00010
pop of  0Cr 5dx2-y2    0.00010
pop of  0Cr 6dxy      0.00033
pop of  0Cr 6dyz      0.00033
pop of  0Cr 6dz^2     0.00033
pop of  0Cr 6dxz      0.00033
pop of  0Cr 6dx2-y2    0.00033
pop of  0Cr 7dxy      0.00001
pop of  0Cr 7dyz      0.00001
pop of  0Cr 7dz^2     0.00001
pop of  0Cr 7dxz      0.00001
pop of  0Cr 7dx2-y2    0.00001
pop of  0Cr 4fy^3     0.00000
pop of  0Cr 4fxyz     0.00000
pop of  0Cr 4fyz^2    0.00000
pop of  0Cr 4fz^3     0.00000
pop of  0Cr 4fxz^2    0.00000
pop of  0Cr 4fzx^2    0.00000
pop of  0Cr 4fx^3     0.00000
pop of  0Cr 5fy^3     0.00000
pop of  0Cr 5fxyz     0.00000
pop of  0Cr 5fyz^2    0.00000
pop of  0Cr 5fz^3     0.00000
pop of  0Cr 5fxz^2    0.00000
pop of  0Cr 5fzx^2    0.00000
pop of  0Cr 5fx^3     0.00000
pop of  0Cr 6fy^3     0.00000
pop of  0Cr 6fxyz     0.00000
pop of  0Cr 6fyz^2    0.00000
pop of  0Cr 6fz^3     0.00000
pop of  0Cr 6fxz^2    0.00000
pop of  0Cr 6fzx^2    0.00000
pop of  0Cr 6fx^3     0.00000
pop of  0Cr 5g-4      0.00000
pop of  0Cr 5g-3      0.00000
pop of  0Cr 5g-2      0.00000
pop of  0Cr 5g-1      0.00000
pop of  0Cr 5g 0      0.00000
pop of  0Cr 5g 1      0.00000
pop of  0Cr 5g 2      0.00000
pop of  0Cr 5g 3      0.00000
pop of  0Cr 5g 4      0.00000
pop of  0Cr 6g-4      0.00000
pop of  0Cr 6g-3      0.00000
pop of  0Cr 6g-2      0.00000
pop of  0Cr 6g-1      0.00000
pop of  0Cr 6g 0      0.00000
pop of  0Cr 6g 1      0.00000
pop of  0Cr 6g 2      0.00000
pop of  0Cr 6g 3      0.00000
pop of  0Cr 6g 4      0.00000
 ** Mulliken atomic charges  **
charge of  0Cr =     -0.00000

******** <class 'pyscf.mcscf.mc1step.CASSCF'> flags ********
CAS (6e+0e, 6o), ncore = 4, nvir = 78
max_cycle_macro = 50
max_cycle_micro = 4
conv_tol = 1e-07
conv_tol_grad = None
orbital rotation max_stepsize = 0.02
augmented hessian ah_max_cycle = 30
augmented hessian ah_conv_tol = 1e-12
augmented hessian ah_linear dependence = 1e-14
augmented hessian ah_level shift = 0
augmented hessian ah_start_tol = 2.5
augmented hessian ah_start_cycle = 3
augmented hessian ah_grad_trust_region = 3
kf_trust_region = 3
kf_interval = 4
ci_response_space = 4
ci_grad_trust_region = 3
with_dep4 0
natorb = False
canonicalization = True
chkfile = ./scratch/92088/tmpfb8nc1
max_memory 4000 MB (current use 205 MB)
internal_rotation = False

******** SHCI flags ********
executable             = /home/bamu3429/softwares/dice/Dice
mpiprefix              = mpirun -np 28
scratchDirectory       = ./scratch/92088
integralFile           = ./FCIDUMP
configFile             = ./input.dat
outputFile             = ./output.dat
maxIter                = 6
sweep_iter             = []
sweep_epsilon          = []
nPTiter                = 0
Stochastic             = True
fullrestart            = False
restart                = False
num_thrds              = 12
memory                 = None

CASCI E = -80.8037361831354  S^2 = 12.0000000
Set conv_tol_grad to 0.000316228
macro iter 1 (21 JK  4 micro), CASSCF E = -81.6037698025932  dE = -0.80003362  S^2 = 12.0000000
               |grad[o]|= 2.63  |grad[c]|= None  |ddm|=0.225
macro iter 2 (21 JK  4 micro), CASSCF E = -83.4342181539153  dE = -1.8304484  S^2 = 12.0000000
               |grad[o]|=  2.5  |grad[c]|= None  |ddm|=0.016
macro iter 3 (21 JK  4 micro), CASSCF E = -83.9239670626757  dE = -0.48974891  S^2 = 12.0000000
               |grad[o]|= 2.33  |grad[c]|= None  |ddm|=0.00942
macro iter 4 (21 JK  4 micro), CASSCF E = -84.7430343209022  dE = -0.81906726  S^2 = 12.0000000
               |grad[o]|= 2.11  |grad[c]|= None  |ddm|=0.00416
macro iter 5 (21 JK  4 micro), CASSCF E = -85.4318994808896  dE = -0.68886516  S^2 = 12.0000000
               |grad[o]|= 1.64  |grad[c]|= None  |ddm|=0.00309
macro iter 6 (21 JK  4 micro), CASSCF E = -85.6897975447314  dE = -0.25789806  S^2 = 12.0000000
               |grad[o]|=0.922  |grad[c]|= None  |ddm|=0.00358
macro iter 7 (21 JK  4 micro), CASSCF E = -85.8665498352007  dE = -0.17675229  S^2 = 12.0000000
               |grad[o]|=0.658  |grad[c]|= None  |ddm|=0.00643
macro iter 8 (21 JK  4 micro), CASSCF E = -85.9657588248906  dE = -0.09920899  S^2 = 12.0000000
               |grad[o]|=0.427  |grad[c]|= None  |ddm|=0.0144
macro iter 9 (21 JK  4 micro), CASSCF E = -86.0069464890568  dE = -0.041187664  S^2 = 12.0000000
               |grad[o]|=0.247  |grad[c]|= None  |ddm|=0.0132
macro iter 10 (21 JK  4 micro), CASSCF E = -86.0210571117634  dE = -0.014110623  S^2 = 12.0000000
               |grad[o]|=0.133  |grad[c]|= None  |ddm|=0.0227
macro iter 11 (21 JK  4 micro), CASSCF E = -86.0237637608426  dE = -0.0027066491  S^2 = 12.0000000
               |grad[o]|=0.0604  |grad[c]|= None  |ddm|=0.0101
macro iter 12 (21 JK  4 micro), CASSCF E = -86.0238644675499  dE = -0.00010070671  S^2 = 12.0000000
               |grad[o]|=0.0278  |grad[c]|= None  |ddm|=0.00322
macro iter 13 (21 JK  4 micro), CASSCF E = -86.0240248718702  dE = -0.00016040432  S^2 = 12.0000000
               |grad[o]|=0.0291  |grad[c]|= None  |ddm|=0.00314
macro iter 14 (21 JK  4 micro), CASSCF E = -86.0239852560268  dE = 3.9615843e-05  S^2 = 12.0000000
               |grad[o]|=0.0193  |grad[c]|= None  |ddm|=0.00417
macro iter 15 (21 JK  4 micro), CASSCF E = -86.024067457116  dE = -8.2201089e-05  S^2 = 12.0000000
               |grad[o]|=0.0227  |grad[c]|= None  |ddm|=0.000455
macro iter 16 (21 JK  4 micro), CASSCF E = -86.0238581967058  dE = 0.00020926041  S^2 = 12.0000000
               |grad[o]|=0.0116  |grad[c]|= None  |ddm|=0.00158
macro iter 17 (21 JK  4 micro), CASSCF E = -86.0239967082127  dE = -0.00013851151  S^2 = 12.0000000
               |grad[o]|=0.0325  |grad[c]|= None  |ddm|=0.00174
macro iter 18 (21 JK  4 micro), CASSCF E = -86.0240342061537  dE = -3.7497941e-05  S^2 = 12.0000000
               |grad[o]|=0.0218  |grad[c]|= None  |ddm|=0.00108
macro iter 19 (21 JK  4 micro), CASSCF E = -86.0233240549153  dE = 0.00071015124  S^2 = 12.0000000
               |grad[o]|=0.0195  |grad[c]|= None  |ddm|=0.0127
macro iter 20 (21 JK  4 micro), CASSCF E = -86.023947827022  dE = -0.00062377211  S^2 = 12.0000000
               |grad[o]|=0.0637  |grad[c]|= None  |ddm|=0.000946
macro iter 21 (21 JK  4 micro), CASSCF E = -86.0239711175801  dE = -2.3290558e-05  S^2 = 12.0000000
               |grad[o]|=0.0284  |grad[c]|= None  |ddm|=0.00769
macro iter 22 (21 JK  4 micro), CASSCF E = -86.0240176509743  dE = -4.6533394e-05  S^2 = 12.0000000
               |grad[o]|=0.0265  |grad[c]|= None  |ddm|=0.0106
macro iter 23 (20 JK  4 micro), CASSCF E = -86.0240713345415  dE = -5.3683567e-05  S^2 = 12.0000000
               |grad[o]|=0.0203  |grad[c]|= None  |ddm|=0.00443
macro iter 24 (21 JK  4 micro), CASSCF E = -86.0240852016108  dE = -1.3867069e-05  S^2 = 12.0000000
               |grad[o]|=0.0113  |grad[c]|= None  |ddm|=0.000649
macro iter 25 (17 JK  4 micro), CASSCF E = -86.0240958037774  dE = -1.0602167e-05  S^2 = 12.0000000
               |grad[o]|=0.00818  |grad[c]|= None  |ddm|=0.00344
macro iter 26 (17 JK  4 micro), CASSCF E = -86.0241008291746  dE = -5.0253972e-06  S^2 = 12.0000000
               |grad[o]|=0.00617  |grad[c]|= None  |ddm|=0.000532
macro iter 27 (7 JK  2 micro), CASSCF E = -86.0241020593831  dE = -1.2302085e-06  S^2 = 12.0000000
               |grad[o]|=0.00404  |grad[c]|= None  |ddm|=0.000191
macro iter 28 (7 JK  2 micro), CASSCF E = -86.0241031387033  dE = -1.0793202e-06  S^2 = 12.0000000
               |grad[o]|=0.00382  |grad[c]|= None  |ddm|=0.000278
macro iter 29 (7 JK  2 micro), CASSCF E = -86.0241068243114  dE = -3.685608e-06  S^2 = 12.0000000
               |grad[o]|=0.00351  |grad[c]|= None  |ddm|=0.000941

ERROR: mpirun -np 28 /home/bamu3429/softwares/dice/Dice ./input.dat > ./output.dat 2>&1

ERROR: mpirun -np 28 /home/bamu3429/softwares/dice/Dice ./input.dat > ./output.dat 2>&1
Traceback (most recent call last):
  File "mrpt.py", line 50, in <module>
    cas=mc.kernel()[0]
  File "/projects/bamu3429/softwares/pyscf_uptodate/pyscf/mcscf/mc1step.py", line 656, in kernel
    ci0=ci0, callback=callback, verbose=self.verbose)
  File "/projects/bamu3429/softwares/pyscf_uptodate/pyscf/mcscf/mc1step.py", line 400, in kernel
    e_tot, e_ci, fcivec = casscf.casci(mo, fcivec, eris, log, locals())
  File "/projects/bamu3429/softwares/pyscf_uptodate/pyscf/mcscf/mc1step.py", line 682, in casci
    e_tot, e_ci, fcivec = casci.kernel(fcasci, mo_coeff, ci0, log)
  File "/projects/bamu3429/softwares/pyscf_uptodate/pyscf/mcscf/casci.py", line 371, in kernel
    ecore=energy_core)
  File "/projects/bamu3429/softwares/pyscf_uptodate/pyscf/shciscf/shci.py", line 571, in kernel
    executeSHCI(self)
  File "/projects/bamu3429/softwares/pyscf_uptodate/pyscf/shciscf/shci.py", line 956, in executeSHCI
    raise err
subprocess.CalledProcessError: Command 'mpirun -np 28 /home/bamu3429/softwares/dice/Dice ./input.dat > ./output.dat 2>&1' returned non-zero exit status 6
