 &FCI NORB=3 ,NELEC=3 ,MS2=3,
  ORBSYM=1,1,1,
  ISYM=1,
 &END
  9.132702731022e-01    1  1  1  1
  4.689858747065e-02    2  1  2  1
  8.194730891272e-01    2  2  1  1
  9.132702550377e-01    2  2  2  2
 -3.241585085565e-12    3  1  1  1
 -2.987861017572e-12    3  1  2  2
  4.689858569624e-02    3  1  3  1
  3.049629098844e-12    3  2  1  1
  3.638531484623e-12    3  2  2  2
  4.689858516897e-02    3  2  3  2
  8.194730623028e-01    3  3  1  1
  8.194730543268e-01    3  3  2  2
 -3.360025558664e-12    3  3  3  1
  3.654062896484e-12    3  3  3  2
  9.132701942867e-01    3  3  3  3
 -2.873735943672e+00    1  1  0  0
  1.137973509019e-12    2  1  0  0
 -2.873735928797e+00    2  2  0  0
  5.461840922880e-12    3  1  0  0
 -5.894924472848e-12    3  2  0  0
 -2.873735878772e+00    3  3  0  0
     -8.906737691528   0  0  0  0
