#INFO: **** input file is /projects/bamu3429/BENCHMARK/fresh_atoms/MRPT/vtz/atoms/O_1/mrpt.py ****
import json
from pyscf import gto,scf,mcscf, fci, lo, ci, cc
from pyscf.scf import ROHF, UHF,ROKS
import numpy as np
import pandas as pd

# THIS IS WERE IT STARTS ====================================

df=json.load(open("../../../trail.json"))

spins={'Sc':1, 'Ti':2, 'V':3, 'Cr':6, 'Mn':5, 'Fe':4, 'Cu':1}

nd={'Sc':(1,0), 'Ti':(2,0), 'V':(3,0), 'Cr':(5,0), 'Mn':(5,0), 'Fe':(5,1), 'Cu':(5,5)}

cas={'Sc':3, 'Ti':4, 'V':5, 'Cr':6, 'Mn':7, 'Fe':8, 'Cu':11}

datacsv={}
for nm in ['atom','charge','method','basis','pseudopotential','hf',
           'totalenergy','totalenergy-stocherr','totalenergy-syserr']:
  datacsv[nm]=[]

basis='vtz'
el='O'
charge=1

mol=gto.Mole()
mol.ecp={}
mol.basis={}
mol.ecp[el]=gto.basis.parse_ecp(df[el]['ecp'])
mol.basis[el]=gto.basis.parse(df[el][basis])
mol.charge=charge
mol.spin=3
mol.build(atom="%s 0. 0. 0."%el,verbose=4)

m=ROHF(mol)
m.level_shift=1000.0
#dm=m.from_chk("../../../../HF/atoms/"+el+basis+str(charge)+".chk")
hf=m.kernel()#dm)
m.analyze()

from pyscf.shciscf import shci
mc = shci.SHCISCF(m, 3, 3)
#mc.fcisolver.conv_tol = 1e-14
mc.fcisolver.mpiprefix="mpirun -np 28"
mc.fcisolver.num_thrds=12
mc.verbose = 4
cas=mc.kernel()[0]
 
from pyscf.icmpspt import icmpspt
pt=icmpspt.icmpspt(mc,rdmM=500, PTM=1000,\
                          pttype="MRLCC",\
                          third_order=True,\
                          fully_ic=True,\
                          do_dm4=True)

datacsv['atom'].append(el)
datacsv['charge'].append(charge)
datacsv['method'].append('MRPT')
datacsv['basis'].append(basis)
datacsv['pseudopotential'].append('trail')
datacsv['hf'].append(hf)
datacsv['totalenergy'].append(cas+pt)
datacsv['totalenergy-stocherr'].append(0.0)
datacsv['totalenergy-syserr'].append(0.0)
pd.DataFrame(datacsv).to_csv(el+".csv",index=False)

#INFO: ******************** input file end ********************


System: ('Linux', 'bnode0304.rc.int.colorado.edu', '3.10.0-514.41.1.el7.x86_64', '#1 SMP Wed Jan 17 10:26:16 EST 2018', 'x86_64', 'x86_64')  Threads 28
Python 2.7.11 (default, Mar 22 2016, 01:42:54) 
[GCC Intel(R) C++ gcc 4.8 mode]
numpy 1.11.1  scipy 0.17.1
Date: Thu Mar 29 15:19:28 2018
PySCF version 1.4
PySCF path  /projects/bamu3429/softwares/pyscf_uptodate/pyscf
GIT ORIG_HEAD e2292e6edec2b0e0024c21b81de03db1d7bd4121
GIT HEAD      ref: refs/heads/master
GIT master branch  f3591ef22170896a4cdc2aadaa6f5da388ffcadb

[INPUT] VERBOSE 4
[INPUT] num atoms = 1
[INPUT] num electrons = 5
[INPUT] charge = 1
[INPUT] spin (= nelec alpha-beta = 2S) = 3
[INPUT] symmetry False subgroup None
[INPUT]  1 O      0.000000000000   0.000000000000   0.000000000000 AA    0.000000000000   0.000000000000   0.000000000000 Bohr
[INPUT] ---------------- BASIS SET ---------------- 
[INPUT] l, kappa, [nprim/nctr], expnt,             c_1 c_2 ...
[INPUT] O
[INPUT] 0    0    [10   /1   ]  57.663349         -0.002794
                                35.726816         0.023976
                                22.453757         -0.115974
                                14.732301         0.288033
                                9.739917          -0.274786
                                5.042008          -0.083789
                                2.157818          0.063778
                                1.002916          0.410182
                                0.421839          0.504044
                                0.173041          0.172152
[INPUT] 0    0    [1    /1   ]  1.849096             1
[INPUT] 0    0    [1    /1   ]  0.255434             1
[INPUT] 0    0    [1    /1   ]  0.141483             1
[INPUT] 1    0    [10   /1   ]  52.47406          -0.000522
                                32.138432         0.004857
                                19.458579         -0.027749
                                11.839344         0.074258
                                7.91003           0.014369
                                3.670858          0.153479
                                1.53966           0.283685
                                0.647119          0.358201
                                0.267853          0.29559
                                0.107198          0.104889
[INPUT] 1    0    [1    /1   ]  0.622175             1
[INPUT] 1    0    [1    /1   ]  0.193391             1
[INPUT] 1    0    [1    /1   ]  0.052779             1
[INPUT] 2    0    [1    /1   ]  2.324251             1
[INPUT] 2    0    [1    /1   ]  0.656935             1
[INPUT] 2    0    [1    /1   ]  0.2072               1
[INPUT] 3    0    [1    /1   ]  1.423472             1
[INPUT] 3    0    [1    /1   ]  0.48761              1
nuclear repulsion = 0
number of shells = 13
number of NR pGTOs = 81
number of NR cGTOs = 45
basis = {'O': [[0, [57.663349, -0.002794], [35.726816, 0.023976], [22.453757, -0.115974], [14.732301, 0.288033], [9.739917, -0.274786], [5.042008, -0.083789], [2.157818, 0.063778], [1.002916, 0.410182], [0.421839, 0.504044], [0.173041, 0.172152]], [0, [1.849096, 1.0]], [0, [0.255434, 1.0]], [0, [0.141483, 1.0]], [1, [52.47406, -0.000522], [32.138432, 0.004857], [19.458579, -0.027749], [11.839344, 0.074258], [7.91003, 0.014369], [3.670858, 0.153479], [1.53966, 0.283685], [0.647119, 0.358201], [0.267853, 0.29559], [0.107198, 0.104889]], [1, [0.622175, 1.0]], [1, [0.193391, 1.0]], [1, [0.052779, 1.0]], [2, [2.324251, 1.0]], [2, [0.656935, 1.0]], [2, [0.2072, 1.0]], [3, [1.423472, 1.0]], [3, [0.48761, 1.0]]]}
ecp = {'O': [2, [[-1, [[], [[10.27717748, 6.0]], [[15.99566749, 1232.50197768], [10.46901775, -696.47008301], [14.6384801, -2654.22657081], [12.57591181, 2101.67732548]], [[7.77739102, 61.66306486]]]], [0, [[], [], [[12.39426073, -656683.37638839], [12.38126171, 657858.57667068], [8.57671033, 511.50098405], [9.89256508, -2579.54665641], [28.05641604, -57.68129584], [17.24753607, 970.30940152]], []]], [1, [[], [], [[14.78918914, -363027.24258186], [14.82014018, 361852.52314043], [22.89622221, -1300.20069256], [8.51331893, -181.96869573], [11.48609758, 2194.87589959], [27.22017524, 451.19906206]], []]]]]}
CPU time:         3.52


******** <class 'pyscf.scf.rohf.ROHF'> flags ********
method = ROHF
initial guess = minao
damping factor = 0
level shift factor = 1000.0
DIIS = <class 'pyscf.scf.diis.CDIIS'>
DIIS start cycle = 1
DIIS space = 8
SCF tol = 1e-09
SCF gradient tol = None
max. SCF cycles = 50
direct_scf = True
direct_scf_tol = 1e-13
chkfile to save SCF result = /projects/bamu3429/BENCHMARK/fresh_atoms/MRPT/vtz/atoms/O_1/tmpVQr2iP
max_memory 4000 MB (current use 77 MB)
num. doubly occ = 1  num. singly occ = 3
Set gradient conv threshold to 3.16228e-05
init E= -15.1342521964541
  HOMO = 332.929598794417  LUMO = 1000.14131676479
cycle= 1 E= -15.0836505883599  delta_E= 0.0506  |g|= 0.549  |ddm|= 1.29
  HOMO = 499.006194960603  LUMO = 999.910567147977
cycle= 2 E= -15.0845215888435  delta_E= -0.000871  |g|= 0.547  |ddm|= 0.00406
  HOMO = 499.17168893349  LUMO = 999.913875757201
cycle= 3 E= -15.0852184129794  delta_E= -0.000697  |g|= 0.545  |ddm|= 0.00335
  HOMO = 499.227554546265  LUMO = 999.914887126594
cycle= 4 E= -15.0858610701164  delta_E= -0.000643  |g|= 0.543  |ddm|= 0.00323
  HOMO = 499.224210901777  LUMO = 999.91401974527
cycle= 5 E= -15.086501321038  delta_E= -0.00064  |g|= 0.542  |ddm|= 0.00322
  HOMO = 499.224701928253  LUMO = 999.912984312399
cycle= 6 E= -15.0871402681369  delta_E= -0.000639  |g|= 0.54  |ddm|= 0.00324
  HOMO = 499.206545649863  LUMO = 999.91139495814
cycle= 7 E= -15.0877923009875  delta_E= -0.000652  |g|= 0.538  |ddm|= 0.00312
  HOMO = 499.206222506653  LUMO = 999.911586682054
cycle= 8 E= -15.0884433901494  delta_E= -0.000651  |g|= 0.537  |ddm|= 0.00312
  HOMO = 499.208988251793  LUMO = 999.911078370014
cycle= 9 E= -15.0890743232541  delta_E= -0.000631  |g|= 0.535  |ddm|= 0.00305
  HOMO = 499.2117179341  LUMO = 999.910471400776
cycle= 10 E= -15.089682663825  delta_E= -0.000608  |g|= 0.533  |ddm|= 0.00297
  HOMO = 499.206723879604  LUMO = 999.911564931512
cycle= 11 E= -15.0903187163425  delta_E= -0.000636  |g|= 0.532  |ddm|= 0.00307
  HOMO = 499.211214879308  LUMO = 999.9105303119
cycle= 12 E= -15.0909192395864  delta_E= -0.000601  |g|= 0.53  |ddm|= 0.00295
  HOMO = 499.210915518987  LUMO = 999.910572052392
cycle= 13 E= -15.0915171075158  delta_E= -0.000598  |g|= 0.528  |ddm|= 0.00294
  HOMO = 499.209492015013  LUMO = 999.910782440617
cycle= 14 E= -15.092113439619  delta_E= -0.000596  |g|= 0.527  |ddm|= 0.00293
  HOMO = 499.211020717117  LUMO = 999.911159153384
cycle= 15 E= -15.0927019948754  delta_E= -0.000589  |g|= 0.525  |ddm|= 0.0029
  HOMO = 499.212231661078  LUMO = 999.9115230952
cycle= 16 E= -15.093283249535  delta_E= -0.000581  |g|= 0.524  |ddm|= 0.00287
  HOMO = 499.211359396951  LUMO = 999.910573868433
cycle= 17 E= -15.0938625374246  delta_E= -0.000579  |g|= 0.522  |ddm|= 0.00287
  HOMO = 499.211260877902  LUMO = 999.910453695009
cycle= 18 E= -15.0944422624819  delta_E= -0.00058  |g|= 0.521  |ddm|= 0.00288
  HOMO = 499.202963513504  LUMO = 999.910655494599
cycle= 19 E= -15.0950213501925  delta_E= -0.000579  |g|= 0.519  |ddm|= 0.00284
  HOMO = 499.192804516854  LUMO = 999.911468937021
cycle= 20 E= -15.0956080636629  delta_E= -0.000587  |g|= 0.517  |ddm|= 0.00289
  HOMO = 499.208774129637  LUMO = 999.911322637353
cycle= 21 E= -15.0961859101814  delta_E= -0.000578  |g|= 0.516  |ddm|= 0.00294
  HOMO = 499.208116793125  LUMO = 999.911318195187
cycle= 22 E= -15.0967602301248  delta_E= -0.000574  |g|= 0.514  |ddm|= 0.00291
  HOMO = 499.211484976875  LUMO = 999.912505149268
cycle= 23 E= -15.0973302313929  delta_E= -0.00057  |g|= 0.513  |ddm|= 0.00292
  HOMO = 499.215265908312  LUMO = 999.913792651726
cycle= 24 E= -15.0978918799961  delta_E= -0.000562  |g|= 0.511  |ddm|= 0.00289
  HOMO = 499.213339574582  LUMO = 999.913342466146
cycle= 25 E= -15.098452659496  delta_E= -0.000561  |g|= 0.51  |ddm|= 0.00289
  HOMO = 499.213163471895  LUMO = 999.91189641398
cycle= 26 E= -15.0990139961843  delta_E= -0.000561  |g|= 0.508  |ddm|= 0.00288
  HOMO = 499.204283777346  LUMO = 999.911563087002
cycle= 27 E= -15.0995753797372  delta_E= -0.000561  |g|= 0.507  |ddm|= 0.00286
  HOMO = 499.207541859859  LUMO = 999.91211408168
cycle= 28 E= -15.1001305406982  delta_E= -0.000555  |g|= 0.505  |ddm|= 0.00283
  HOMO = 499.21377122125  LUMO = 999.912667155034
cycle= 29 E= -15.10067808689  delta_E= -0.000548  |g|= 0.504  |ddm|= 0.0028
  HOMO = 499.216587004017  LUMO = 999.913126126686
cycle= 30 E= -15.1012187167085  delta_E= -0.000541  |g|= 0.502  |ddm|= 0.00278
  HOMO = 499.226522591471  LUMO = 999.914658264969
cycle= 31 E= -15.1017550565616  delta_E= -0.000536  |g|= 0.501  |ddm|= 0.00279
  HOMO = 499.226057628785  LUMO = 999.914825878925
cycle= 32 E= -15.1022880070335  delta_E= -0.000533  |g|=  0.5  |ddm|= 0.00277
  HOMO = 499.218574890304  LUMO = 999.912984980693
cycle= 33 E= -15.1028161048496  delta_E= -0.000528  |g|= 0.498  |ddm|= 0.00272
  HOMO = 499.209121712131  LUMO = 999.911295257506
cycle= 34 E= -15.10334198568  delta_E= -0.000526  |g|= 0.497  |ddm|= 0.00268
  HOMO = 499.212551837117  LUMO = 999.911731889318
cycle= 35 E= -15.1038647809311  delta_E= -0.000523  |g|= 0.495  |ddm|= 0.00268
  HOMO = 499.204625718575  LUMO = 999.911242158815
cycle= 36 E= -15.104389909041  delta_E= -0.000525  |g|= 0.494  |ddm|= 0.00268
  HOMO = 499.206749875326  LUMO = 999.911264194218
cycle= 37 E= -15.1049085825024  delta_E= -0.000519  |g|= 0.492  |ddm|= 0.00265
  HOMO = 499.204139879903  LUMO = 999.911768028571
cycle= 38 E= -15.1054297774161  delta_E= -0.000521  |g|= 0.491  |ddm|= 0.00267
  HOMO = 499.223425399132  LUMO = 999.915105003624
cycle= 39 E= -15.1059443100728  delta_E= -0.000515  |g|= 0.49  |ddm|= 0.00272
  HOMO = 499.226778240902  LUMO = 999.915045227542
cycle= 40 E= -15.1064517284051  delta_E= -0.000507  |g|= 0.488  |ddm|= 0.0027
  HOMO = 499.226721753118  LUMO = 999.914741079613
cycle= 41 E= -15.1069541638039  delta_E= -0.000502  |g|= 0.487  |ddm|= 0.00268
  HOMO = 499.225585193039  LUMO = 999.914802580516
cycle= 42 E= -15.1074561412849  delta_E= -0.000502  |g|= 0.486  |ddm|= 0.00268
  HOMO = 499.226457875843  LUMO = 999.914900276863
cycle= 43 E= -15.1079544818357  delta_E= -0.000498  |g|= 0.484  |ddm|= 0.00266
  HOMO = 499.225522980691  LUMO = 999.914580992468
cycle= 44 E= -15.1084472592097  delta_E= -0.000493  |g|= 0.483  |ddm|= 0.00261
  HOMO = 499.223918181049  LUMO = 999.91427741652
cycle= 45 E= -15.1089400000782  delta_E= -0.000493  |g|= 0.482  |ddm|= 0.00261
  HOMO = 499.218969845798  LUMO = 999.914265230782
cycle= 46 E= -15.1094306765689  delta_E= -0.000491  |g|= 0.48  |ddm|= 0.00258
  HOMO = 499.228980530278  LUMO = 999.914257892668
cycle= 47 E= -15.1099128595122  delta_E= -0.000482  |g|= 0.479  |ddm|= 0.00259
  HOMO = 499.221260039265  LUMO = 999.914185913019
cycle= 48 E= -15.1103991230657  delta_E= -0.000486  |g|= 0.478  |ddm|= 0.00259
  HOMO = 499.222008899787  LUMO = 999.914310173961
cycle= 49 E= -15.1108829016856  delta_E= -0.000484  |g|= 0.476  |ddm|= 0.00259
  HOMO = 499.22230350733  LUMO = 999.91490530399
cycle= 50 E= -15.1113630587264  delta_E= -0.00048  |g|= 0.475  |ddm|= 0.00257
  HOMO = -1.01291007454907  LUMO = -0.0733147764862616
Extra cycle  E= -15.205014720639  delta_E= -0.0937  |g|= 0.141  |ddm|= 0.965
SCF not converged.
SCF energy = -15.205014720639 after 50 cycles
**** MO energy ****
                Roothaan           | alpha              | beta
MO #1   energy= -1.95264799534752  | -2.20431951817182  | -1.70097647381707  occ= 2
MO #2   energy= -1.01293355283213  | -1.44290275591608  | -0.505270715182353 occ= 1
MO #3   energy= -1.01292817766606  | -1.44286862163589  | -0.505281519220527 occ= 1
MO #4   energy= -1.01291007454907  | -1.442753851664    | -0.505317822133236 occ= 1
MO #5   energy= -0.0733147764862616 | -0.0922095750907659 | -0.0815665753659397 occ= 0
MO #6   energy= -0.07331367637756  | -0.0922079152263168 | -0.0815648374491863 occ= 0
MO #7   energy= -0.0733099614463365 | -0.0922023416950934 | -0.081558998587023 occ= 0
MO #8   energy= -0.0566782913987705 | -0.0788410050064773 | -0.0345155777787874 occ= 0
MO #9   energy= 0.264109178275241  | 0.239392714862552  | 0.288825641717103  occ= 0
MO #10  energy= 0.264109212570059  | 0.239392667049999  | 0.288825758092882  occ= 0
MO #11  energy= 0.264111322266141  | 0.239391279027932  | 0.288831365503133  occ= 0
MO #12  energy= 0.264111951195853  | 0.239390870628263  | 0.288833031769952  occ= 0
MO #13  energy= 0.264112479844653  | 0.239390499044653  | 0.28883446065833   occ= 0
MO #14  energy= 0.395128635328561  | 0.336392054201006  | 0.407869083772002  occ= 0
MO #15  energy= 0.39513628795685   | 0.336398284058011  | 0.407874301973562  occ= 0
MO #16  energy= 0.395161992718886  | 0.336419221435429  | 0.407891840954843  occ= 0
MO #17  energy= 1.28871780963454   | 1.23018513728972   | 1.34725048198156   occ= 0
MO #18  energy= 1.52114038699282   | 1.49940813632272   | 1.54287263766603   occ= 0
MO #19  energy= 1.52114039334457   | 1.49940813802538   | 1.54287264866583   occ= 0
MO #20  energy= 1.52114509948191   | 1.49940988301336   | 1.54288031595633   occ= 0
MO #21  energy= 1.52114533614147   | 1.49940996478469   | 1.54288070749825   occ= 0
MO #22  energy= 1.52114755608289   | 1.49941078343015   | 1.54288432876383   occ= 0
MO #23  energy= 1.52114907606852   | 1.49941134816711   | 1.54288680399117   occ= 0
MO #24  energy= 1.52114950194107   | 1.49941150296885   | 1.54288750094838   occ= 0
MO #25  energy= 1.54396721390175   | 1.46658849006852   | 1.6213459377855    occ= 0
MO #26  energy= 1.54396733049894   | 1.46659031150609   | 1.62134434963257   occ= 0
MO #27  energy= 1.54396738493152   | 1.46659194891723   | 1.62134282108831   occ= 0
MO #28  energy= 1.5439675954951    | 1.46659812302084   | 1.62133706827077   occ= 0
MO #29  energy= 1.5439676760737    | 1.46659846375609   | 1.62133688842753   occ= 0
MO #30  energy= 2.85425254539742   | 2.7696157594821    | 2.93433842710288   occ= 0
MO #31  energy= 2.85426605279218   | 2.76963381304267   | 2.93433746743526   occ= 0
MO #32  energy= 2.85431141091991   | 2.76969445497709   | 2.93433423113831   occ= 0
MO #33  energy= 5.63789870366308   | 5.58492471336198   | 5.6908726939638    occ= 0
MO #34  energy= 5.63789870439473   | 5.58492470895233   | 5.69087269983706   occ= 0
MO #35  energy= 5.63789945369334   | 5.58492478875722   | 5.69087411862893   occ= 0
MO #36  energy= 5.63789948890003   | 5.58492474934571   | 5.69087422845435   occ= 0
MO #37  energy= 5.63789984017126   | 5.58492475531845   | 5.69087492502128   occ= 0
MO #38  energy= 5.63790008353341   | 5.58492478904171   | 5.6908753780232    occ= 0
MO #39  energy= 5.6379001498111    | 5.58492477415904   | 5.69087552545935   occ= 0
MO #40  energy= 6.08732643937183   | 5.99698897447289   | 6.17766390447664   occ= 0
MO #41  energy= 6.08732646030293   | 5.99698919406761   | 6.17766372714102   occ= 0
MO #42  energy= 6.08732896673989   | 5.99700716976215   | 6.17765076392487   occ= 0
MO #43  energy= 6.08732971944426   | 5.99701253935239   | 6.17764689997819   occ= 0
MO #44  energy= 6.08733032817619   | 5.99701698876337   | 6.17764366773913   occ= 0
MO #45  energy= 10.9974457503699   | 10.9324772233956   | 11.0624142773131   occ= 0
 ** Mulliken pop on meta-lowdin orthogonal AOs  **
 ** Mulliken pop  **
pop of  0O 2s        1.99177
pop of  0O 3s        0.00200
pop of  0O 4s        0.00220
pop of  0O 5s        0.00403
pop of  0O 2px       0.96505
pop of  0O 2py       0.96508
pop of  0O 2pz       0.96505
pop of  0O 3px       0.00013
pop of  0O 3py       0.00013
pop of  0O 3pz       0.00013
pop of  0O 4px       0.02576
pop of  0O 4py       0.02573
pop of  0O 4pz       0.02575
pop of  0O 5px       0.00907
pop of  0O 5py       0.00906
pop of  0O 5pz       0.00907
pop of  0O 3dxy      0.00000
pop of  0O 3dyz      0.00000
pop of  0O 3dz^2     0.00000
pop of  0O 3dxz      0.00000
pop of  0O 3dx2-y2    0.00000
pop of  0O 4dxy      0.00000
pop of  0O 4dyz      0.00000
pop of  0O 4dz^2     0.00000
pop of  0O 4dxz      0.00000
pop of  0O 4dx2-y2    0.00000
pop of  0O 5dxy      0.00000
pop of  0O 5dyz      0.00000
pop of  0O 5dz^2     0.00000
pop of  0O 5dxz      0.00000
pop of  0O 5dx2-y2    0.00000
pop of  0O 4fy^3     0.00000
pop of  0O 4fxyz     0.00000
pop of  0O 4fyz^2    0.00000
pop of  0O 4fz^3     0.00000
pop of  0O 4fxz^2    0.00000
pop of  0O 4fzx^2    0.00000
pop of  0O 4fx^3     0.00000
pop of  0O 5fy^3     0.00000
pop of  0O 5fxyz     0.00000
pop of  0O 5fyz^2    0.00000
pop of  0O 5fz^3     0.00000
pop of  0O 5fxz^2    0.00000
pop of  0O 5fzx^2    0.00000
pop of  0O 5fx^3     0.00000
 ** Mulliken atomic charges  **
charge of  0O =      1.00000

******** <class 'pyscf.mcscf.mc1step.CASSCF'> flags ********
CAS (3e+0e, 3o), ncore = 1, nvir = 41
max_cycle_macro = 50
max_cycle_micro = 4
conv_tol = 1e-07
conv_tol_grad = None
orbital rotation max_stepsize = 0.02
augmented hessian ah_max_cycle = 30
augmented hessian ah_conv_tol = 1e-12
augmented hessian ah_linear dependence = 1e-14
augmented hessian ah_level shift = 0
augmented hessian ah_start_tol = 2.5
augmented hessian ah_start_cycle = 3
augmented hessian ah_grad_trust_region = 3
kf_trust_region = 3
kf_interval = 4
ci_response_space = 4
ci_grad_trust_region = 3
with_dep4 0
natorb = False
canonicalization = True
chkfile = ./scratch/180178/tmp8vFFDx
max_memory 4000 MB (current use 220 MB)
internal_rotation = False

******** SHCI flags ********
executable             = /home/bamu3429/softwares/dice/Dice
mpiprefix              = mpirun -np 28
scratchDirectory       = ./scratch/180178
integralFile           = ./FCIDUMP
configFile             = ./input.dat
outputFile             = ./output.dat
maxIter                = 6
sweep_iter             = []
sweep_epsilon          = []
nPTiter                = 0
Stochastic             = True
fullrestart            = False
restart                = False
num_thrds              = 12
memory                 = None

CASCI E = -15.2050147206389  S^2 = 3.7500000
Set conv_tol_grad to 0.000316228
macro iter 1 (7 JK  3 micro), CASSCF E = -15.2102217287419  dE = -0.0052070081  S^2 = 3.7500000
               |grad[o]|=0.141  |grad[c]|= None  |ddm|=    0
macro iter 2 (3 JK  1 micro), CASSCF E = -15.2102219953481  dE = -2.6660618e-07  S^2 = 3.7500000
               |grad[o]|=0.000793  |grad[c]|= None  |ddm|=    0
macro iter 3 (1 JK  1 micro), CASSCF E = -15.2102219953481  dE = 0  S^2 = 3.7500000
               |grad[o]|=2.81e-06  |grad[c]|= None  |ddm|=    0
1-step CASSCF converged in 3 macro (11 JK 5 micro) steps
CASSCF canonicalization
CASSCF energy = -15.2102219953481


--------------------------------------------------
                 ICMPSPT CALCULATION              
--------------------------------------------------

Perturbation type: MRLCC
With fully internally contracted scheme
With third order correction

Preparing necessary RDMs
......production of RDMs took       0.52 sec
Reading binary 4RDM from DICE
......reading the RDM took          0.01 sec

(GOOD) Trace 4RDM:      0.0 =    3*    2*    1*    0
(BAD)  Trace 3RDM:      nan!=    3*    2*    1
(BAD)  Trace 2RDM:      nan!=    3*    2
(BAD)  Trace 1RDM:      nan!=    3

Producing the integrals
......production of INT took       1.53 sec

Energy_core =  -8.90673769153
Energy      =  nan

WARNING: Have to use natural orbitals from CAASCF
         offdiagonal elements: 0.448235939629

Basic ingredients written to int/
......savings of INGREDIENTS took       0.66 sec

terminate called after throwing an instance of 'std::runtime_error'
  what():  No convergence!
/bin/sh: line 1: 188470 Aborted                 /projects/bamu3429/softwares/icpt/icpt MRLCC_CCVV.inp > MRLCC_CCVV.out
Second-order:
Traceback (most recent call last):
  File "mrpt.py", line 54, in <module>
    do_dm4=True)
  File "/projects/bamu3429/softwares/pyscf_uptodate/pyscf/icmpspt/icmpspt.py", line 1375, in icmpspt
    cumulantE4=cumulantE4, df=df, no_handcoded_E3=no_handcoded_E3)
  File "/projects/bamu3429/softwares/pyscf_uptodate/pyscf/icmpspt/icmpspt.py", line 689, in executeMRLCC
    output = check_call("%s  %s  %s > %s"%(mpiprefix, executable, infile, outfile), shell=True)
  File "/curc/sw/python/2.7.11/lib/python2.7/subprocess.py", line 540, in check_call
    raise CalledProcessError(retcode, cmd)
subprocess.CalledProcessError: Command '  /projects/bamu3429/softwares/icpt/icpt  MRLCC_CCVV.inp > MRLCC_CCVV.out' returned non-zero exit status 134
