 &FCI NORB=6 ,NELEC=4 ,MS2=2,
  ORBSYM=1,1,1,1,1,1,
  ISYM=1,
 &END
  2.447366262795e-01    1  1  1  1
  7.369428671306e-08    2  1  1  1
  8.421274056708e-03    2  1  2  1
  3.073632351009e-01    2  2  1  1
  1.086823050249e-04    2  2  2  1
  6.660829182418e-01    2  2  2  2
 -3.251707837837e-08    3  1  1  1
  5.715806008460e-07    3  1  2  1
  3.710963716668e-03    3  1  2  2
  8.421372292279e-03    3  1  3  1
 -8.914815848950e-07    3  2  1  1
  3.711062122283e-03    3  2  2  1
 -7.901638609089e-06    3  2  2  2
 -1.083695063931e-04    3  2  3  1
  3.009399082719e-02    3  2  3  2
  3.073629393134e-01    3  3  1  1
 -1.089871708628e-04    3  3  2  1
  6.058928485743e-01    3  3  2  2
 -3.711382868589e-03    3  3  3  1
 -7.786121046266e-06    3  3  3  2
  6.660787055450e-01    3  3  3  3
  5.599887136238e-02    4  1  4  1
 -6.819377724899e-03    4  2  4  1
  8.342467906205e-03    4  2  4  2
  5.384814633987e-05    4  3  4  1
 -2.154111301997e-03    4  3  4  2
  8.432377113438e-03    4  3  4  3
  2.420782666967e-01    4  4  1  1
 -3.667407252204e-03    4  4  2  1
  3.000842265852e-01    4  4  2  2
  2.903318525048e-05    4  4  3  1
 -3.145604946617e-03    4  4  3  2
  3.002167755585e-01    4  4  3  3
  2.591465073636e-01    4  4  4  4
  4.024256747747e-07    5  1  4  1
  5.410609825431e-03    5  1  4  2
  1.046789114883e-02    5  1  4  3
  5.599853178904e-02    5  1  5  1
  5.410197256092e-03    5  2  4  1
  3.357582168418e-03    5  2  4  2
  1.611746052811e-03    5  2  4  3
  1.213376314192e-02    5  2  5  1
  8.469714944135e-03    5  2  5  2
  1.046673416989e-02    5  3  4  1
  1.613037003178e-03    5  3  4  2
 -3.355924307686e-03    5  3  4  3
 -8.824029349161e-05    5  3  5  1
  3.837330629475e-03    5  3  5  2
  8.304819931540e-03    5  3  5  3
  1.286970709893e-06    5  4  1  1
  2.909466137116e-03    5  4  2  1
  4.901942861590e-03    5  4  2  2
  5.628979250238e-03    5  4  3  1
  2.352297555258e-03    5  4  3  2
 -4.894795830487e-03    5  4  3  3
 -4.285732675330e-04    5  4  4  4
  1.569540282998e-02    5  4  5  4
  2.420792364661e-01    5  5  1  1
  6.525142047563e-03    5  5  2  1
  3.002749261728e-01    5  5  2  2
 -4.771128148327e-05    5  5  3  1
  5.595739633118e-03    5  5  3  2
  3.000310464624e-01    5  5  3  3
  2.295085514019e-01    5  5  4  4
  7.637628037328e-04    5  5  5  4
  2.603280614753e-01    5  5  5  5
  9.917088526331e-07    6  1  4  1
  1.201403869342e-02    6  1  4  2
 -1.065284855650e-02    6  1  4  3
  7.913386477983e-07    6  1  5  1
  6.914191582613e-03    6  1  5  2
  1.045601009360e-02    6  1  5  3
  5.599861720879e-02    6  1  6  1
  1.201410747042e-02    6  2  4  1
 -3.252925496181e-03    6  2  4  2
  3.892849224315e-03    6  2  4  3
  6.914775072108e-03    6  2  5  1
  3.368351462882e-03    6  2  5  2
  2.088667306106e-03    6  2  5  3
 -5.310433489318e-03    6  2  6  1
  8.349854604548e-03    6  2  6  2
 -1.065285826487e-02    6  3  4  1
  3.893233312215e-03    6  3  4  2
  3.257509590394e-03    6  3  4  3
  1.045712533448e-02    6  3  5  1
  2.087249776163e-03    6  3  5  2
 -3.365757457826e-03    6  3  5  3
  3.423983096086e-05    6  3  6  1
 -1.677727007272e-03    6  3  6  2
  8.425190185545e-03    6  3  6  3
  3.614209420151e-06    6  4  1  1
  6.460911345101e-03    6  4  2  1
 -4.739106602357e-03    6  4  2  2
 -5.728910137747e-03    6  4  3  1
  5.681760015125e-03    6  4  3  2
  4.759026150259e-03    6  4  3  3
 -9.654481695361e-04    6  4  4  4
 -5.456635588480e-04    6  4  5  4
  1.727095266152e-03    6  4  5  5
  1.708943405454e-02    6  4  6  4
  2.232063689190e-06    6  5  1  1
  3.718318635573e-03    6  5  2  1
  4.919454447907e-03    6  5  2  2
  5.623178423533e-03    6  5  3  1
  3.046071670237e-03    6  5  3  2
 -4.907716592317e-03    6  5  3  3
 -5.439689113074e-04    6  5  4  4
  1.724218732736e-03    6  5  5  4
  9.778445711965e-04    6  5  5  5
 -3.321443464539e-04    6  5  6  4
  1.591101665296e-02    6  5  6  5
  2.420784460398e-01    6  6  1  1
 -2.855936302286e-03    6  6  2  1
  3.000959253921e-01    6  6  2  2
  1.845868878587e-05    6  6  3  1
 -2.450152279761e-03    6  6  3  2
  3.002065077267e-01    6  6  3  3
  2.309016904831e-01    6  6  4  4
 -3.311413181480e-04    6  6  5  4
  2.297244513071e-01    6  6  5  5
 -7.498439159009e-04    6  6  6  4
 -4.267093593105e-04    6  6  6  5
  2.589314831697e-01    6  6  6  6
 -1.071443185179e+00    1  1  0  0
  4.129634250384e-07    2  1  0  0
 -1.613490789217e+00    2  2  0  0
  3.228066520106e-07    3  1  0  0
  9.268352115064e-06    3  2  0  0
 -1.613488330843e+00    3  3  0  0
 -9.283726860776e-01    4  4  0  0
 -3.888688281747e-06    5  4  0  0
 -9.283778238651e-01    5  5  0  0
 -1.113740962220e-05    6  4  0  0
 -6.615108327511e-06    6  5  0  0
 -9.283735889282e-01    6  6  0  0
    -54.186203948390   0  0  0  0
