#INFO: **** input file is /projects/bamu3429/BENCHMARK/fresh_atoms/MRPT/vqz/atoms/Ti_0/mrpt.py ****
import json
from pyscf import gto,scf,mcscf, fci, lo, ci, cc
from pyscf.scf import ROHF, UHF,ROKS
import numpy as np
import pandas as pd

# THIS IS WERE IT STARTS ====================================

df=json.load(open("../../../trail.json"))

spins={'Sc':1, 'Ti':2, 'V':3, 'Cr':6, 'Mn':5, 'Fe':4, 'Cu':1}

nd={'Sc':(1,0), 'Ti':(2,0), 'V':(3,0), 'Cr':(5,0), 'Mn':(5,0), 'Fe':(5,1), 'Cu':(5,5)}

cas={'Sc':3, 'Ti':4, 'V':5, 'Cr':6, 'Mn':7, 'Fe':8, 'Cu':11}

datacsv={}
for nm in ['atom','charge','method','basis','pseudopotential','hf',
           'totalenergy','totalenergy-stocherr','totalenergy-syserr']:
  datacsv[nm]=[]

basis='vqz'
el='Ti'
charge=0

mol=gto.Mole()
mol.ecp={}
mol.basis={}
mol.ecp[el]=gto.basis.parse_ecp(df[el]['ecp'])
mol.basis[el]=gto.basis.parse(df[el][basis])
mol.charge=charge
if el == 'Cr' or el == 'Cu':
  mol.spin=spins[el]-charge
else:
  mol.spin=spins[el]+charge
mol.build(atom="%s 0. 0. 0."%el,verbose=4)

m=ROHF(mol)
m.level_shift=1000.0
dm=m.from_chk("../../../../HF/atoms/"+el+basis+str(charge)+".chk")
hf=m.kernel(dm)
m.analyze()

from pyscf.shciscf import shci
mc = shci.SHCISCF(m, 6, cas[el]-charge)
#mc.fcisolver.conv_tol = 1e-14
mc.fcisolver.mpiprefix="srun -n20"
mc.fcisolver.num_thrds=12
mc.verbose = 4
cas=mc.kernel()[0]
 
from pyscf.icmpspt import icmpspt
pt=icmpspt.icmpspt(mc,rdmM=500, PTM=1000,\
                          pttype="MRLCC",\
                          third_order=True,\
                          fully_ic=True,\
                          do_dm4=True)

datacsv['atom'].append(el)
datacsv['charge'].append(charge)
datacsv['method'].append('MRPT')
datacsv['basis'].append(basis)
datacsv['pseudopotential'].append('trail')
datacsv['hf'].append(hf)
datacsv['totalenergy'].append(cas+pt)
datacsv['totalenergy-stocherr'].append(0.0)
datacsv['totalenergy-syserr'].append(0.0)
pd.DataFrame(datacsv).to_csv(el+".csv",index=False)

#INFO: ******************** input file end ********************


System: ('Linux', 'bnode0302.rc.int.colorado.edu', '3.10.0-514.41.1.el7.x86_64', '#1 SMP Wed Jan 17 10:26:16 EST 2018', 'x86_64', 'x86_64')  Threads 28
Python 2.7.11 (default, Mar 22 2016, 01:42:54) 
[GCC Intel(R) C++ gcc 4.8 mode]
numpy 1.11.1  scipy 0.17.1
Date: Thu Apr 19 09:51:02 2018
PySCF version 1.4.6
PySCF path  /projects/bamu3429/softwares/pyscf_uptodate/pyscf
GIT ORIG_HEAD f3591ef22170896a4cdc2aadaa6f5da388ffcadb
GIT HEAD      ref: refs/heads/master
GIT master branch  1847583fb1d2472321833d3c71c8b7008e5fabf5

[INPUT] VERBOSE 4
[INPUT] num atoms = 1
[INPUT] num electrons = 12
[INPUT] charge = 0
[INPUT] spin (= nelec alpha-beta = 2S) = 2
[INPUT] symmetry False subgroup None
[INPUT]  1 Ti     0.000000000000   0.000000000000   0.000000000000 AA    0.000000000000   0.000000000000   0.000000000000 Bohr
[INPUT] ---------------- BASIS SET ---------------- 
[INPUT] l, kappa, [nprim/nctr], expnt,             c_1 c_2 ...
[INPUT] Ti
[INPUT] 0    0    [12   /1   ]  37.13946663       0.002411
                                11.66061728       -0.575963
                                8.9751153         2.645948
                                7.67011905        -2.362876
                                3.44923714        -0.059842
                                1.58705441        0.244002
                                0.95387432        0.58593
                                0.47300537        0.378609
                                0.2203041         0.031099
                                0.10349534        0.004602
                                0.04822069        0.000609
                                0.0226639         0.001044
[INPUT] 0    0    [12   /1   ]  37.13946663       -0.000363
                                11.66061728       0.129591
                                8.9751153         -0.625086
                                7.67011905        0.572499
                                3.44923714        0.016652
                                1.58705441        -0.073052
                                0.95387432        -0.203234
                                0.47300537        -0.251131
                                0.2203041         -0.044619
                                0.10349534        0.38905
                                0.04822069        0.591401
                                0.0226639         0.208165
[INPUT] 0    0    [12   /1   ]  37.13946663       -0.001115
                                11.66061728       0.51967
                                8.9751153         -2.657294
                                7.67011905        2.533238
                                3.44923714        0.024774
                                1.58705441        -1.195577
                                0.95387432        -0.355978
                                0.47300537        0.518177
                                0.2203041         0.914245
                                0.10349534        0.348281
                                0.04822069        -0.566441
                                0.0226639         -0.389331
[INPUT] 0    0    [12   /1   ]  37.13946663       -0.002329
                                11.66061728       0.799099
                                8.9751153         -4.200932
                                7.67011905        4.132106
                                3.44923714        -0.32722
                                1.58705441        -2.567932
                                0.95387432        1.125856
                                0.47300537        2.155366
                                0.2203041         -0.743551
                                0.10349534        -1.579371
                                0.04822069        0.515995
                                0.0226639         0.699247
[INPUT] 0    0    [12   /1   ]  37.13946663       0.006064
                                11.66061728       -1.642157
                                8.9751153         9.19655
                                7.67011905        -9.630064
                                3.44923714        3.376611
                                1.58705441        2.286739
                                0.95387432        -6.165423
                                0.47300537        2.656283
                                0.2203041         1.918514
                                0.10349534        -2.202132
                                0.04822069        -0.293714
                                0.0226639         0.961713
[INPUT] 0    0    [1    /1   ]  0.0226639            1
[INPUT] 0    0    [1    /1   ]  0.01065211           1
[INPUT] 1    0    [12   /1   ]  44.38520603       0.000557
                                23.85822456       -0.004857
                                12.73507149       0.027448
                                6.00842867        -0.150306
                                3.96301478        0.092203
                                2.13751474        0.210744
                                1.20712576        0.397756
                                0.62000194        0.354359
                                0.30900057        0.130823
                                0.12918293        0.012952
                                0.05400711        -0.000125
                                0.02257859        0.000245
[INPUT] 1    0    [12   /1   ]  44.38520603       -7.7e-05
                                23.85822456       0.000906
                                12.73507149       -0.006126
                                6.00842867        0.038285
                                3.96301478        -0.027356
                                2.13751474        -0.059665
                                1.20712576        -0.115513
                                0.62000194        -0.130421
                                0.30900057        0.025358
                                0.12918293        0.394962
                                0.05400711        0.54831
                                0.02257859        0.169017
[INPUT] 1    0    [12   /1   ]  44.38520603       0.000289
                                23.85822456       -0.004068
                                12.73507149       0.031182
                                6.00842867        -0.242448
                                3.96301478        0.198909
                                2.13751474        0.720192
                                1.20712576        0.162963
                                0.62000194        -0.788053
                                0.30900057        -0.456042
                                0.12918293        0.594094
                                0.05400711        0.321239
                                0.02257859        -0.002282
[INPUT] 1    0    [12   /1   ]  44.38520603       0.000322
                                23.85822456       -0.006293
                                12.73507149       0.061433
                                6.00842867        -0.709428
                                3.96301478        1.230546
                                2.13751474        1.099591
                                1.20712576        -1.80149
                                0.62000194        -0.680724
                                0.30900057        1.665036
                                0.12918293        -0.194409
                                0.05400711        -0.605253
                                0.02257859        0.020232
[INPUT] 1    0    [12   /1   ]  44.38520603       -0.006431
                                23.85822456       0.02841
                                12.73507149       -0.038493
                                6.00842867        -0.726428
                                3.96301478        2.460211
                                2.13751474        -1.502353
                                1.20712576        -1.404761
                                0.62000194        2.497509
                                0.30900057        -1.029217
                                0.12918293        -0.611426
                                0.05400711        0.750291
                                0.02257859        -0.038783
[INPUT] 1    0    [1    /1   ]  0.02257859           1
[INPUT] 1    0    [1    /1   ]  0.00943936           1
[INPUT] 2    0    [10   /1   ]  29.31465998       -0.000519
                                13.63067536       -0.007186
                                8.04907964        0.095441
                                3.25682476        0.170565
                                1.474054          0.27882
                                0.66141289        0.324798
                                0.29673638        0.280135
                                0.13456087        0.172066
                                0.06095666        0.058237
                                0.02784531        0.004588
[INPUT] 2    0    [10   /1   ]  29.31465998       0.00281
                                13.63067536       -0.006479
                                8.04907964        -0.060988
                                3.25682476        -0.258291
                                1.474054          -0.49009
                                0.66141289        0.014554
                                0.29673638        0.352182
                                0.13456087        0.382358
                                0.06095666        0.172767
                                0.02784531        0.017366
[INPUT] 2    0    [10   /1   ]  29.31465998       0.007744
                                13.63067536       -0.037639
                                8.04907964        0.009879
                                3.25682476        -0.574581
                                1.474054          -0.215187
                                0.66141289        0.874455
                                0.29673638        0.174962
                                0.13456087        -0.439503
                                0.06095666        -0.344031
                                0.02784531        -0.031851
[INPUT] 2    0    [10   /1   ]  29.31465998       -0.001945
                                13.63067536       0.029001
                                8.04907964        -0.27627
                                3.25682476        -0.946826
                                1.474054          1.28698
                                0.66141289        0.065529
                                0.29673638        -0.957094
                                0.13456087        0.325461
                                0.06095666        0.369531
                                0.02784531        0.058554
[INPUT] 2    0    [1    /1   ]  0.02784531           1
[INPUT] 2    0    [1    /1   ]  0.01271987           1
[INPUT] 3    0    [1    /1   ]  2.750207             1
[INPUT] 3    0    [1    /1   ]  0.966241             1
[INPUT] 3    0    [1    /1   ]  0.339471             1
[INPUT] 3    0    [1    /1   ]  0.11926688           1
[INPUT] 4    0    [1    /1   ]  2.807857             1
[INPUT] 4    0    [1    /1   ]  1.018064             1
[INPUT] 4    0    [1    /1   ]  0.36912644           1
[INPUT] 5    0    [1    /1   ]  2.388057             1
[INPUT] 5    0    [1    /1   ]  0.8658542            1
nuclear repulsion = 0
number of shells = 29
number of NR pGTOs = 535
number of NR cGTOs = 135
basis = {'Ti': [[0, [37.13946663, 0.002411], [11.66061728, -0.575963], [8.9751153, 2.645948], [7.67011905, -2.362876], [3.44923714, -0.059842], [1.58705441, 0.244002], [0.95387432, 0.58593], [0.47300537, 0.378609], [0.2203041, 0.031099], [0.10349534, 0.004602], [0.04822069, 0.000609], [0.0226639, 0.001044]], [0, [37.13946663, -0.000363], [11.66061728, 0.129591], [8.9751153, -0.625086], [7.67011905, 0.572499], [3.44923714, 0.016652], [1.58705441, -0.073052], [0.95387432, -0.203234], [0.47300537, -0.251131], [0.2203041, -0.044619], [0.10349534, 0.38905], [0.04822069, 0.591401], [0.0226639, 0.208165]], [0, [37.13946663, -0.001115], [11.66061728, 0.51967], [8.9751153, -2.657294], [7.67011905, 2.533238], [3.44923714, 0.024774], [1.58705441, -1.195577], [0.95387432, -0.355978], [0.47300537, 0.518177], [0.2203041, 0.914245], [0.10349534, 0.348281], [0.04822069, -0.566441], [0.0226639, -0.389331]], [0, [37.13946663, -0.002329], [11.66061728, 0.799099], [8.9751153, -4.200932], [7.67011905, 4.132106], [3.44923714, -0.32722], [1.58705441, -2.567932], [0.95387432, 1.125856], [0.47300537, 2.155366], [0.2203041, -0.743551], [0.10349534, -1.579371], [0.04822069, 0.515995], [0.0226639, 0.699247]], [0, [37.13946663, 0.006064], [11.66061728, -1.642157], [8.9751153, 9.19655], [7.67011905, -9.630064], [3.44923714, 3.376611], [1.58705441, 2.286739], [0.95387432, -6.165423], [0.47300537, 2.656283], [0.2203041, 1.918514], [0.10349534, -2.202132], [0.04822069, -0.293714], [0.0226639, 0.961713]], [0, [0.0226639, 1.0]], [0, [0.01065211, 1.0]], [1, [44.38520603, 0.000557], [23.85822456, -0.004857], [12.73507149, 0.027448], [6.00842867, -0.150306], [3.96301478, 0.092203], [2.13751474, 0.210744], [1.20712576, 0.397756], [0.62000194, 0.354359], [0.30900057, 0.130823], [0.12918293, 0.012952], [0.05400711, -0.000125], [0.02257859, 0.000245]], [1, [44.38520603, -7.7e-05], [23.85822456, 0.000906], [12.73507149, -0.006126], [6.00842867, 0.038285], [3.96301478, -0.027356], [2.13751474, -0.059665], [1.20712576, -0.115513], [0.62000194, -0.130421], [0.30900057, 0.025358], [0.12918293, 0.394962], [0.05400711, 0.54831], [0.02257859, 0.169017]], [1, [44.38520603, 0.000289], [23.85822456, -0.004068], [12.73507149, 0.031182], [6.00842867, -0.242448], [3.96301478, 0.198909], [2.13751474, 0.720192], [1.20712576, 0.162963], [0.62000194, -0.788053], [0.30900057, -0.456042], [0.12918293, 0.594094], [0.05400711, 0.321239], [0.02257859, -0.002282]], [1, [44.38520603, 0.000322], [23.85822456, -0.006293], [12.73507149, 0.061433], [6.00842867, -0.709428], [3.96301478, 1.230546], [2.13751474, 1.099591], [1.20712576, -1.80149], [0.62000194, -0.680724], [0.30900057, 1.665036], [0.12918293, -0.194409], [0.05400711, -0.605253], [0.02257859, 0.020232]], [1, [44.38520603, -0.006431], [23.85822456, 0.02841], [12.73507149, -0.038493], [6.00842867, -0.726428], [3.96301478, 2.460211], [2.13751474, -1.502353], [1.20712576, -1.404761], [0.62000194, 2.497509], [0.30900057, -1.029217], [0.12918293, -0.611426], [0.05400711, 0.750291], [0.02257859, -0.038783]], [1, [0.02257859, 1.0]], [1, [0.00943936, 1.0]], [2, [29.31465998, -0.000519], [13.63067536, -0.007186], [8.04907964, 0.095441], [3.25682476, 0.170565], [1.474054, 0.27882], [0.66141289, 0.324798], [0.29673638, 0.280135], [0.13456087, 0.172066], [0.06095666, 0.058237], [0.02784531, 0.004588]], [2, [29.31465998, 0.00281], [13.63067536, -0.006479], [8.04907964, -0.060988], [3.25682476, -0.258291], [1.474054, -0.49009], [0.66141289, 0.014554], [0.29673638, 0.352182], [0.13456087, 0.382358], [0.06095666, 0.172767], [0.02784531, 0.017366]], [2, [29.31465998, 0.007744], [13.63067536, -0.037639], [8.04907964, 0.009879], [3.25682476, -0.574581], [1.474054, -0.215187], [0.66141289, 0.874455], [0.29673638, 0.174962], [0.13456087, -0.439503], [0.06095666, -0.344031], [0.02784531, -0.031851]], [2, [29.31465998, -0.001945], [13.63067536, 0.029001], [8.04907964, -0.27627], [3.25682476, -0.946826], [1.474054, 1.28698], [0.66141289, 0.065529], [0.29673638, -0.957094], [0.13456087, 0.325461], [0.06095666, 0.369531], [0.02784531, 0.058554]], [2, [0.02784531, 1.0]], [2, [0.01271987, 1.0]], [3, [2.750207, 1.0]], [3, [0.966241, 1.0]], [3, [0.339471, 1.0]], [3, [0.11926688, 1.0]], [4, [2.807857, 1.0]], [4, [1.018064, 1.0]], [4, [0.36912644, 1.0]], [5, [2.388057, 1.0]], [5, [0.8658542, 1.0]]]}
ecp = {'Ti': [10, [[-1, [[], [[8.52499277, 12.0]], [[15.2433413, 2048.39512837], [9.82605516, -812.71625987], [13.73638629, -6663.62886396], [12.6545051, 5396.93874773]], [[7.54790686, 102.29991323]]]], [0, [[], [], [[6.07854372, -5355.67455847], [6.60870356, 4802.76911085], [5.40803832, 1304.66429039], [10.43037595, -1133.61681175], [18.40796253, -258.77562194], [15.384288, 672.53886697]], []]], [1, [[], [], [[9.60319864, 56981.17339652], [9.66270511, -57002.97844363], [15.06515908, 1335.72576887], [16.36599976, -813.49634683], [7.86420177, -720.45341501], [10.25452653, 239.69852194]], []]], [2, [[], [], [[10.56650824, -4262.72074057], [2.71368379, -1.34753473], [9.33780917, 1569.82864567], [31.60560687, -0.4538755], [12.28030141, 5034.44351544], [13.3677017, -2350.67846378]], []]]]]}
CPU time:         3.64


******** <class 'pyscf.scf.rohf.ROHF'> flags ********
method = ROHF
initial guess = minao
damping factor = 0
level shift factor = 1000.0
DIIS = <class 'pyscf.scf.diis.CDIIS'>
DIIS start cycle = 1
DIIS space = 8
SCF tol = 1e-09
SCF gradient tol = None
max. SCF cycles = 50
direct_scf = True
direct_scf_tol = 1e-13
chkfile to save SCF result = /rc_scratch/bamu3429/tmpRETP3l
max_memory 4000 MB (current use 177 MB)
num. doubly occ = 5  num. singly occ = 2
Set gradient conv threshold to 3.16228e-05
init E= -57.5233247822034
  HOMO = 499.912152422169  LUMO = 1000.01371211008
cycle= 1 E= -57.5233247822036  delta_E= -2.06e-13  |g|= 8.53e-06  |ddm|= 3.13e-08
  HOMO = -0.087847581506293  LUMO = 0.0137121100635734
Extra cycle  E= -57.523324782211  delta_E= -7.45e-12  |g|= 4.8e-06  |ddm|= 2.54e-05
converged SCF energy = -57.523324782211
**** MO energy ****
                Roothaan           | alpha              | beta
MO #1   energy= -2.92064678684139  | -2.98822124847695  | -2.85307232520583  occ= 2
MO #2   energy= -1.81222905278528  | -1.8961659660381   | -1.72829213953246  occ= 2
MO #3   energy= -1.81222904571906  | -1.8961660024234   | -1.72829208901472  occ= 2
MO #4   energy= -1.81222903692848  | -1.89616607783458  | -1.72829199602237  occ= 2
MO #5   energy= -0.222069923540599 | -0.230103333861737 | -0.214036513219456 occ= 2
MO #6   energy= -0.0878475817006995 | -0.438492327994416 | 0.262795798457968  occ= 1
MO #7   energy= -0.087847581506293 | -0.438492329188236 | 0.262795798813773  occ= 1
MO #8   energy= 0.0137121100635734 | 0.0130116563381131 | 0.0144125637890333 occ= 0
MO #9   energy= 0.0137121114139894 | 0.0130116574674572 | 0.014412565360519  occ= 0
MO #10  energy= 0.0137121131441975 | 0.0130116587740833 | 0.0144125675143076 occ= 0
MO #11  energy= 0.0238266025475081 | 0.023439832833297  | 0.0242133722617226 occ= 0
MO #12  energy= 0.0388347389503979 | 0.0387954290807596 | 0.038874048820034  occ= 0
MO #13  energy= 0.0388347392024822 | 0.038795429373244  | 0.0388740490317215 occ= 0
MO #14  energy= 0.0388347393905314 | 0.0387954295619683 | 0.0388740492190937 occ= 0
MO #15  energy= 0.0392524336555632 | 0.0391780774664033 | 0.0393269184595805 occ= 0
MO #16  energy= 0.0392524336780647 | 0.0391780774852407 | 0.039326918466248  occ= 0
MO #17  energy= 0.0449711473300761 | 0.043278472016826  | 0.0466638226433267 occ= 0
MO #18  energy= 0.0449711497196639 | 0.0432784735497262 | 0.0466638258896033 occ= 0
MO #19  energy= 0.0449711535840065 | 0.043278475788952  | 0.0466638313790613 occ= 0
MO #20  energy= 0.103272335863035  | 0.100173730713353  | 0.106370941012716  occ= 0
MO #21  energy= 0.103272340462927  | 0.100173737113024  | 0.10637094381283   occ= 0
MO #22  energy= 0.103272347184858  | 0.100173747347197  | 0.106370947022524  occ= 0
MO #23  energy= 0.122552737679688  | 0.120510148222474  | 0.124595549043661  occ= 0
MO #24  energy= 0.122552737833576  | 0.120510148303201  | 0.124595549010345  occ= 0
MO #25  energy= 0.180906813519784  | 0.176030943260253  | 0.185782683779315  occ= 0
MO #26  energy= 0.18090681859302   | 0.176030945849358  | 0.18578269133668   occ= 0
MO #27  energy= 0.180906826413777  | 0.176030948756723  | 0.18578270407083   occ= 0
MO #28  energy= 0.184598226791381  | 0.181241417372443  | 0.187955036210322  occ= 0
MO #29  energy= 0.185155477491102  | 0.172130895349373  | 0.198180059632823  occ= 0
MO #30  energy= 0.185155492353146  | 0.172130912527815  | 0.198180072178478  occ= 0
MO #31  energy= 0.185155518930484  | 0.172130943753921  | 0.198180094107047  occ= 0
MO #32  energy= 0.449448463477912  | 0.449142917523731  | 0.449754009432094  occ= 0
MO #33  energy= 0.449501111668024  | 0.446214361963038  | 0.452787861373007  occ= 0
MO #34  energy= 0.449501112197084  | 0.446214361184846  | 0.45278786320932   occ= 0
MO #35  energy= 0.449501113008213  | 0.446214360115109  | 0.452787865901316  occ= 0
MO #36  energy= 0.449503499829274  | 0.447578288613385  | 0.451428711045168  occ= 0
MO #37  energy= 0.449503502542196  | 0.44757828951517   | 0.451428715569222  occ= 0
MO #38  energy= 0.449503506906127  | 0.447578291611771  | 0.451428722200481  occ= 0
MO #39  energy= 0.501839346854009  | 0.472847518403169  | 0.53083206712262   occ= 0
MO #40  energy= 0.501839347583835  | 0.472847518777936  | 0.530832067387349  occ= 0
MO #41  energy= 0.563853725833442  | 0.554240314380931  | 0.573467137285958  occ= 0
MO #42  energy= 0.563853739267816  | 0.554240329308954  | 0.573467149226683  occ= 0
MO #43  energy= 0.563853760796899  | 0.55424035371178   | 0.573467167882023  occ= 0
MO #44  energy= 0.587012663492655  | 0.580790127923193  | 0.593235199062105  occ= 0
MO #45  energy= 0.978948804619153  | 0.964022133232255  | 0.993875476006052  occ= 0
MO #46  energy= 0.978948820071974  | 0.964022141412107  | 0.993875498731844  occ= 0
MO #47  energy= 0.978948842518999  | 0.964022149674279  | 0.993875535363713  occ= 0
MO #48  energy= 1.32730563863006   | 1.30303019380166   | 1.35158108345846   occ= 0
MO #49  energy= 1.32730563926364   | 1.30303020111844   | 1.35158107740884   occ= 0
MO #50  energy= 1.32730564243956   | 1.30303022363022   | 1.3515810612489    occ= 0
MO #51  energy= 1.3303036280761    | 1.31587006733867   | 1.34473718881354   occ= 0
MO #52  energy= 1.33030363381219   | 1.315870052972     | 1.34473721465238   occ= 0
MO #53  energy= 1.33030364160232   | 1.31587004709731   | 1.34473723610732   occ= 0
MO #54  energy= 1.33365174849748   | 1.33122082618368   | 1.33608267081128   occ= 0
MO #55  energy= 1.70140232442939   | 1.69786366648582   | 1.70494098237296   occ= 0
MO #56  energy= 1.70140233114778   | 1.69786367139826   | 1.70494099089729   occ= 0
MO #57  energy= 1.70140233801575   | 1.69786367491052   | 1.70494100112099   occ= 0
MO #58  energy= 1.70399694265129   | 1.69718932944111   | 1.71080455237332   occ= 0
MO #59  energy= 1.70399694268418   | 1.69718932949025   | 1.71080455239089   occ= 0
MO #60  energy= 1.70486421362822   | 1.69678962742588   | 1.71293879983056   occ= 0
MO #61  energy= 1.70486421520811   | 1.69678962992298   | 1.71293880049324   occ= 0
MO #62  energy= 1.70486421760225   | 1.69678963302061   | 1.71293880218389   occ= 0
MO #63  energy= 1.70604208180291   | 1.69627858572134   | 1.71580557788448   occ= 0
MO #64  energy= 2.12792831786955   | 2.11130175770567   | 2.14455487803344   occ= 0
MO #65  energy= 2.28948940628427   | 2.23365739263183   | 2.34532153312346   occ= 0
MO #66  energy= 2.289489406576     | 2.2336573930582    | 2.34532153315748   occ= 0
MO #67  energy= 2.31702169648165   | 2.30555661705154   | 2.32848677591174   occ= 0
MO #68  energy= 2.31702171340116   | 2.30555663579157   | 2.32848679101076   occ= 0
MO #69  energy= 2.31702174280497   | 2.30555666872669   | 2.32848681688325   occ= 0
MO #70  energy= 3.49662345600546   | 3.44693527627037   | 3.54631163574055   occ= 0
MO #71  energy= 3.49662345786133   | 3.44693529507731   | 3.54631162064534   occ= 0
MO #72  energy= 3.49662346245275   | 3.44693533354419   | 3.5463115913613    occ= 0
MO #73  energy= 3.50191963744267   | 3.47168059136883   | 3.53215868351651   occ= 0
MO #74  energy= 3.50191965398198   | 3.47168056023432   | 3.53215874772964   occ= 0
MO #75  energy= 3.50191966555207   | 3.47168054753634   | 3.53215878356781   occ= 0
MO #76  energy= 3.50790101177076   | 3.50225242101461   | 3.51354960252691   occ= 0
MO #77  energy= 3.62558356816711   | 3.60587321623014   | 3.6452939201041    occ= 0
MO #78  energy= 3.62558359346023   | 3.60587323373017   | 3.64529395319028   occ= 0
MO #79  energy= 3.62558363683386   | 3.60587326137534   | 3.64529401229238   occ= 0
MO #80  energy= 4.84678696860571   | 4.84017807562511   | 4.85339586158631   occ= 0
MO #81  energy= 4.84678698220766   | 4.84017808670293   | 4.85339587771239   occ= 0
MO #82  energy= 4.84678700147234   | 4.84017810098528   | 4.8533959019594    occ= 0
MO #83  energy= 4.84818478041982   | 4.84072331367735   | 4.85564624716229   occ= 0
MO #84  energy= 4.84818478043872   | 4.84072331369643   | 4.855646247181     occ= 0
MO #85  energy= 4.85574414583763   | 4.84368492763879   | 4.86780336403645   occ= 0
MO #86  energy= 4.8557441503399    | 4.84368493008082   | 4.86780337059898   occ= 0
MO #87  energy= 4.85574415824546   | 4.84368493390475   | 4.86780338258616   occ= 0
MO #88  energy= 4.85867695781271   | 4.84470776611431   | 4.87264614951111   occ= 0
MO #89  energy= 4.85867696344625   | 4.84470777065579   | 4.87264615623671   occ= 0
MO #90  energy= 4.85867697143161   | 4.84470777647016   | 4.87264616639306   occ= 0
MO #91  energy= 4.98667505311454   | 4.97591853995064   | 4.99743156627844   occ= 0
MO #92  energy= 4.98667506481738   | 4.9759185464521    | 4.99743158318265   occ= 0
MO #93  energy= 4.98667508356631   | 4.97591855498142   | 4.99743161215121   occ= 0
MO #94  energy= 4.99285163901035   | 4.97225530778752   | 5.01344798853588   occ= 0
MO #95  energy= 4.99285163901158   | 4.97225530778958   | 5.01344798853585   occ= 0
MO #96  energy= 4.99493408887865   | 4.97068018924228   | 5.01918798851502   occ= 0
MO #97  energy= 4.99493409344787   | 4.97068019734579   | 5.01918798954995   occ= 0
MO #98  energy= 4.99493409694451   | 4.97068020266909   | 5.01918799121994   occ= 0
MO #99  energy= 4.99779195773864   | 4.96869977244185   | 5.02688414303545   occ= 0
MO #100 energy= 6.17057596080527   | 6.12840199174091   | 6.21274992546325   occ= 0
MO #101 energy= 6.17057596082252   | 6.12840199192888   | 6.2127499253081    occ= 0
MO #102 energy= 6.17635104562188   | 6.16604817463084   | 6.18665391661293   occ= 0
MO #103 energy= 6.17635106217168   | 6.16604819264199   | 6.18665393170137   occ= 0
MO #104 energy= 6.17635109467258   | 6.16604822800088   | 6.18665396134426   occ= 0
MO #105 energy= 7.52331257883248   | 7.50448217828677   | 7.5421429793782    occ= 0
MO #106 energy= 9.29903339222055   | 9.29326569744303   | 9.3048010869981    occ= 0
MO #107 energy= 9.30009599925468   | 9.27335839481149   | 9.32683360369789   occ= 0
MO #108 energy= 9.30009603939314   | 9.27335839544675   | 9.32683368333952   occ= 0
MO #109 energy= 9.30009605875645   | 9.27335839471022   | 9.3268337228027    occ= 0
MO #110 energy= 9.30081950752016   | 9.25714104840677   | 9.34449796663355   occ= 0
MO #111 energy= 9.30081951632852   | 9.25714102779589   | 9.34449800486118   occ= 0
MO #112 energy= 9.30081952056069   | 9.25714101708641   | 9.34449802403499   occ= 0
MO #113 energy= 10.4838054693325   | 10.4659214340337   | 10.5016895046312   occ= 0
MO #114 energy= 10.4838054957814   | 10.4659214525003   | 10.5016895390625   occ= 0
MO #115 energy= 10.483805548824    | 10.4659214898579   | 10.5016896077902   occ= 0
MO #116 energy= 13.3331751501062   | 13.3202214026761   | 13.3461288975363   occ= 0
MO #117 energy= 13.3331751639668   | 13.3202214104746   | 13.3461289174591   occ= 0
MO #118 energy= 13.3331751925839   | 13.3202214271799   | 13.3461289579878   occ= 0
MO #119 energy= 13.3427856820369   | 13.3180334078669   | 13.3675379576333   occ= 0
MO #120 energy= 13.3427856820521   | 13.3180334079089   | 13.3675379576215   occ= 0
MO #121 energy= 13.3459921433535   | 13.3171583528914   | 13.3748259338157   occ= 0
MO #122 energy= 13.3459921501485   | 13.3171583639834   | 13.3748259363135   occ= 0
MO #123 energy= 13.3459921532564   | 13.3171583692601   | 13.3748259372528   occ= 0
MO #124 energy= 13.3504762014637   | 13.3159902640926   | 13.3849621388348   occ= 0
MO #125 energy= 14.1540146480438   | 14.1428134276135   | 14.1652158684741   occ= 0
MO #126 energy= 14.1540146659852   | 14.1428134412851   | 14.1652158906852   occ= 0
MO #127 energy= 14.1540147012947   | 14.142813468189    | 14.1652159344003   occ= 0
MO #128 energy= 14.1564430119604   | 14.1437998296884   | 14.1690861942324   occ= 0
MO #129 energy= 14.1564430120433   | 14.1437998297356   | 14.169086194351    occ= 0
MO #130 energy= 14.1695454749869   | 14.149173916113    | 14.1899170338607   occ= 0
MO #131 energy= 14.1695454820771   | 14.149173919793    | 14.1899170443613   occ= 0
MO #132 energy= 14.1695454960373   | 14.1491739270304   | 14.1899170650442   occ= 0
MO #133 energy= 14.1746364184407   | 14.15114819192     | 14.1981246449615   occ= 0
MO #134 energy= 14.1746364258627   | 14.1511481975483   | 14.1981246541772   occ= 0
MO #135 energy= 14.174636440453    | 14.1511482086028   | 14.1981246723032   occ= 0
 ** Mulliken pop on meta-lowdin orthogonal AOs  **
 ** Mulliken pop  **
pop of  0Ti 3s        1.99995
pop of  0Ti 4s        1.99904
pop of  0Ti 5s        0.00063
pop of  0Ti 6s        0.00016
pop of  0Ti 7s        0.00000
pop of  0Ti 8s        0.00010
pop of  0Ti 9s        0.00011
pop of  0Ti 3px       1.99966
pop of  0Ti 3py       1.99966
pop of  0Ti 3pz       1.99966
pop of  0Ti 4px       0.00009
pop of  0Ti 4py       0.00009
pop of  0Ti 4pz       0.00009
pop of  0Ti 5px       0.00003
pop of  0Ti 5py       0.00003
pop of  0Ti 5pz       0.00003
pop of  0Ti 6px       0.00001
pop of  0Ti 6py       0.00001
pop of  0Ti 6pz       0.00001
pop of  0Ti 7px       0.00000
pop of  0Ti 7py       0.00000
pop of  0Ti 7pz       0.00000
pop of  0Ti 8px       0.00000
pop of  0Ti 8py       0.00000
pop of  0Ti 8pz       0.00000
pop of  0Ti 9px       0.00000
pop of  0Ti 9py       0.00000
pop of  0Ti 9pz       0.00000
pop of  0Ti 3dxy      0.61535
pop of  0Ti 3dyz      0.37452
pop of  0Ti 3dz^2     0.18514
pop of  0Ti 3dxz      0.69846
pop of  0Ti 3dx2-y2    0.10628
pop of  0Ti 4dxy      0.00504
pop of  0Ti 4dyz      0.00306
pop of  0Ti 4dz^2     0.00151
pop of  0Ti 4dxz      0.00572
pop of  0Ti 4dx2-y2    0.00087
pop of  0Ti 5dxy      0.00058
pop of  0Ti 5dyz      0.00035
pop of  0Ti 5dz^2     0.00017
pop of  0Ti 5dxz      0.00066
pop of  0Ti 5dx2-y2    0.00010
pop of  0Ti 6dxy      0.00006
pop of  0Ti 6dyz      0.00004
pop of  0Ti 6dz^2     0.00002
pop of  0Ti 6dxz      0.00007
pop of  0Ti 6dx2-y2    0.00001
pop of  0Ti 7dxy      0.00057
pop of  0Ti 7dyz      0.00034
pop of  0Ti 7dz^2     0.00017
pop of  0Ti 7dxz      0.00064
pop of  0Ti 7dx2-y2    0.00010
pop of  0Ti 8dxy      0.00003
pop of  0Ti 8dyz      0.00002
pop of  0Ti 8dz^2     0.00001
pop of  0Ti 8dxz      0.00003
pop of  0Ti 8dx2-y2    0.00000
pop of  0Ti 4fy^3     0.00000
pop of  0Ti 4fxyz     0.00004
pop of  0Ti 4fyz^2    0.00000
pop of  0Ti 4fz^3     0.00002
pop of  0Ti 4fxz^2    0.00003
pop of  0Ti 4fzx^2    0.00002
pop of  0Ti 4fx^3     0.00002
pop of  0Ti 5fy^3     0.00001
pop of  0Ti 5fxyz     0.00009
pop of  0Ti 5fyz^2    0.00000
pop of  0Ti 5fz^3     0.00004
pop of  0Ti 5fxz^2    0.00006
pop of  0Ti 5fzx^2    0.00004
pop of  0Ti 5fx^3     0.00006
pop of  0Ti 6fy^3     0.00001
pop of  0Ti 6fxyz     0.00005
pop of  0Ti 6fyz^2    0.00000
pop of  0Ti 6fz^3     0.00002
pop of  0Ti 6fxz^2    0.00004
pop of  0Ti 6fzx^2    0.00002
pop of  0Ti 6fx^3     0.00004
pop of  0Ti 7fy^3     0.00000
pop of  0Ti 7fxyz     0.00000
pop of  0Ti 7fyz^2    0.00000
pop of  0Ti 7fz^3     0.00000
pop of  0Ti 7fxz^2    0.00000
pop of  0Ti 7fzx^2    0.00000
pop of  0Ti 7fx^3     0.00000
pop of  0Ti 5g-4      0.00000
pop of  0Ti 5g-3      0.00000
pop of  0Ti 5g-2      0.00000
pop of  0Ti 5g-1      0.00000
pop of  0Ti 5g 0      0.00000
pop of  0Ti 5g 1      0.00000
pop of  0Ti 5g 2      0.00000
pop of  0Ti 5g 3      0.00000
pop of  0Ti 5g 4      0.00000
pop of  0Ti 6g-4      0.00000
pop of  0Ti 6g-3      0.00001
pop of  0Ti 6g-2      0.00000
pop of  0Ti 6g-1      0.00001
pop of  0Ti 6g 0      0.00000
pop of  0Ti 6g 1      0.00000
pop of  0Ti 6g 2      0.00001
pop of  0Ti 6g 3      0.00000
pop of  0Ti 6g 4      0.00001
pop of  0Ti 7g-4      0.00000
pop of  0Ti 7g-3      0.00000
pop of  0Ti 7g-2      0.00000
pop of  0Ti 7g-1      0.00001
pop of  0Ti 7g 0      0.00000
pop of  0Ti 7g 1      0.00000
pop of  0Ti 7g 2      0.00001
pop of  0Ti 7g 3      0.00000
pop of  0Ti 7g 4      0.00001
pop of  0Ti 6h-5      0.00000
pop of  0Ti 6h-4      0.00000
pop of  0Ti 6h-3      0.00000
pop of  0Ti 6h-2      0.00000
pop of  0Ti 6h-1      0.00000
pop of  0Ti 6h 0      0.00000
pop of  0Ti 6h 1      0.00000
pop of  0Ti 6h 2      0.00000
pop of  0Ti 6h 3      0.00000
pop of  0Ti 6h 4      0.00000
pop of  0Ti 6h 5      0.00000
pop of  0Ti 7h-5      0.00000
pop of  0Ti 7h-4      0.00000
pop of  0Ti 7h-3      0.00000
pop of  0Ti 7h-2      0.00000
pop of  0Ti 7h-1      0.00000
pop of  0Ti 7h 0      0.00000
pop of  0Ti 7h 1      0.00000
pop of  0Ti 7h 2      0.00000
pop of  0Ti 7h 3      0.00000
pop of  0Ti 7h 4      0.00000
pop of  0Ti 7h 5      0.00000
 ** Mulliken atomic charges  **
charge of  0Ti =     -0.00000

******** <class 'pyscf.mcscf.mc1step.CASSCF'> flags ********
CAS (3e+1e, 6o), ncore = 4, nvir = 125
max_cycle_macro = 50
max_cycle_micro = 4
conv_tol = 1e-07
conv_tol_grad = None
orbital rotation max_stepsize = 0.02
augmented hessian ah_max_cycle = 30
augmented hessian ah_conv_tol = 1e-12
augmented hessian ah_linear dependence = 1e-14
augmented hessian ah_level shift = 0
augmented hessian ah_start_tol = 2.5
augmented hessian ah_start_cycle = 3
augmented hessian ah_grad_trust_region = 3
kf_trust_region = 3
kf_interval = 4
ci_response_space = 4
ci_grad_trust_region = 3
with_dep4 0
natorb = False
canonicalization = True
sorting_mo_energy = False
chkfile = ./scratch/186352/tmpvYokpO
max_memory 4000 MB (current use 837 MB)
internal_rotation = False

******** SHCI flags ********
executable             = /home/bamu3429/softwares/dice/Dice
mpiprefix              = srun -n20
scratchDirectory       = ./scratch/186352
integralFile           = ./FCIDUMP
configFile             = ./input.dat
outputFile             = ./output.dat
maxIter                = 6
sweep_iter             = []
sweep_epsilon          = []
nPTiter                = 0
Stochastic             = True
fullrestart            = False
restart                = False
num_thrds              = 12
memory                 = None

CASCI E = -57.5243266180855  S^2 = 2.0000000
Set conv_tol_grad to 0.000316228
macro iter 1 (21 JK  4 micro), CASSCF E = -57.5362406990104  dE = -0.011914081  S^2 = 2.0000000
               |grad[o]|=0.00278  |grad[c]|= None  |ddm|=0.057
macro iter 2 (21 JK  4 micro), CASSCF E = -57.5523308072653  dE = -0.016090108  S^2 = 2.0000000
               |grad[o]|=0.0135  |grad[c]|= None  |ddm|=0.0828
macro iter 3 (17 JK  4 micro), CASSCF E = -57.5544764238728  dE = -0.0021456166  S^2 = 2.0000000
               |grad[o]|=0.00846  |grad[c]|= None  |ddm|=0.00459
macro iter 4 (6 JK  2 micro), CASSCF E = -57.5544767621187  dE = -3.3824594e-07  S^2 = 2.0000000
               |grad[o]|=0.000351  |grad[c]|= None  |ddm|=    0
macro iter 5 (5 JK  1 micro), CASSCF E = -57.5544771111232  dE = -3.4900449e-07  S^2 = 2.0000000
               |grad[o]|=0.00015  |grad[c]|= None  |ddm|=8.53e-05
macro iter 6 (8 JK  1 micro), CASSCF E = -57.5544771953394  dE = -8.4216204e-08  S^2 = 2.0000000
               |grad[o]|=7.22e-05  |grad[c]|= None  |ddm|=3.88e-05
1-step CASSCF converged in 6 macro (78 JK 16 micro) steps
CASSCF canonicalization
CASSCF energy = -57.5544771953394


--------------------------------------------------
                 ICMPSPT CALCULATION              
--------------------------------------------------

Perturbation type: MRLCC
With fully internally contracted scheme
With third order correction

Preparing necessary RDMs
......production of RDMs took       3.72 sec
Reading binary 4RDM from DICE
......reading the RDM took          1.01 sec

(GOOD) Trace 4RDM:     24.0 =    4*    3*    2*    1
(GOOD) Trace 3RDM:     24.0 =    4*    3*    2
(GOOD) Trace 2RDM:     12.0 =    4*    3
(GOOD) Trace 1RDM:      4.0 =    4

Producing the integrals
......production of INT took     232.12 sec

Energy_core =  -54.18620395
Energy      =  -57.55447720

WARNING: Have to use natural orbitals from CAASCF
         offdiagonal elements:    0.44254561

Basic ingredients written to int/
......savings of INGREDIENTS took      57.32 sec

Second-order:
perturber CCVV --        -0.211981015
perturber CCAV --        -0.060591741
perturber ACVV --        -0.116025062
perturber CCAA --        -0.001065209
perturber AAVV --        -0.018103176
perturber CAAV --        -0.040104604
perturber AAAV --        -0.008164988
perturber AAAC --        -0.002953539
Total:                   -0.458989335

Third-order:             -0.000741337

Total PT       --        -0.459730673

