 &FCI NORB=6 ,NELEC=8 ,MS2=4,
  ORBSYM=1,1,1,1,1,1,
  ISYM=1,
 &END
  8.875494734966e-01    1  1  1  1
  7.773963543542e-03    2  1  2  1
  3.598685916731e-01    2  2  1  1
  2.811947048859e-01    2  2  2  2
 -1.456638000151e-03    3  1  2  1
  4.008881323693e-02    3  1  3  1
  1.552456914083e-03    3  2  1  1
  1.075671144115e-03    3  2  2  2
  7.001088809679e-03    3  2  3  2
  8.279190242380e-01    3  3  1  1
  3.622979623935e-01    3  3  2  2
  4.232700553634e-03    3  3  3  2
  9.339868675457e-01    3  3  3  3
  3.517706200122e-02    4  1  4  1
  1.005056626437e-03    4  2  4  1
  6.973602436403e-03    4  2  4  2
  9.405649943260e-03    4  3  4  1
  5.168556110492e-04    4  3  4  2
  2.584318069460e-02    4  3  4  3
  8.377754393571e-01    4  4  1  1
  1.077849616566e-03    4  4  2  1
  3.620638815388e-01    4  4  2  2
 -1.818357783020e-02    4  4  3  1
  3.641584722260e-03    4  4  3  2
  8.808717707328e-01    4  4  3  3
  9.304794042838e-01    4  4  4  4
  8.177654228425e-05    5  1  4  2
  7.652917358724e-04    5  1  4  3
  3.517706200119e-02    5  1  5  1
  8.177654228426e-05    5  2  4  1
 -1.005056626437e-03    5  2  5  1
  6.973602436403e-03    5  2  5  2
  7.652917358736e-04    5  3  4  1
 -9.405649943276e-03    5  3  5  1
  5.168556110507e-04    5  3  5  2
  2.584318069463e-02    5  3  5  3
  8.769935188426e-05    5  4  2  1
 -1.479508798010e-03    5  4  3  1
 -2.707901416001e-05    5  4  4  4
  3.655566203201e-02    5  4  5  4
  8.377754393572e-01    5  5  1  1
 -1.077849616574e-03    5  5  2  1
  3.620638815388e-01    5  5  2  2
  1.818357783024e-02    5  5  3  1
  3.641584722260e-03    5  5  3  2
  8.808717707327e-01    5  5  3  3
  8.580292909943e-01    5  5  4  4
  2.707901416053e-05    5  5  5  4
  9.304794042838e-01    5  5  5  5
  1.930492983430e-02    6  1  6  1
 -5.334936181729e-05    6  2  4  4
  6.556786104216e-04    6  2  5  4
  5.334936181604e-05    6  2  5  5
  6.923388353533e-03    6  2  6  2
  1.516184018654e-03    6  3  4  4
 -1.863432657192e-02    6  3  5  4
 -1.516184018656e-03    6  3  5  5
 -7.261182230685e-04    6  3  6  2
  4.151114057359e-02    6  3  6  3
 -6.773369061980e-05    6  4  4  2
 -7.749457611512e-04    6  4  4  3
 -1.605637808858e-02    6  4  5  1
  8.324660433038e-04    6  4  5  2
  9.524300619954e-03    6  4  5  3
  3.634428392184e-02    6  4  6  4
  1.605637808859e-02    6  5  4  1
  8.324660433032e-04    6  5  4  2
  9.524300619930e-03    6  5  4  3
  6.773369061971e-05    6  5  5  2
  7.749457611520e-04    6  5  5  3
  3.634428392184e-02    6  5  6  5
  8.662729795512e-01    6  6  1  1
  3.613119055605e-01    6  6  2  2
  2.077843830508e-03    6  6  3  2
  8.441380778346e-01    6  6  3  3
  8.541743942692e-01    6  6  4  4
  8.541743942692e-01    6  6  5  5
  9.229408721290e-01    6  6  6  6
 -5.449364166811e+00    1  1  0  0
 -2.689214972236e+00    2  2  0  0
 -1.922876819453e-02    3  2  0  0
 -5.550362833158e+00    3  3  0  0
 -5.545249628143e+00    4  4  0  0
 -5.545249628143e+00    5  5  0  0
 -5.529012255065e+00    6  6  0  0
   -101.635129385838   0  0  0  0
