#INFO: **** input file is /projects/bamu3429/BENCHMARK/fresh_atoms/MRPT/vtz/atoms/Fe_0/mrpt.py ****
import json
from pyscf import gto,scf,mcscf, fci, lo, ci, cc
from pyscf.scf import ROHF, UHF,ROKS
import numpy as np
import pandas as pd

# THIS IS WERE IT STARTS ====================================

df=json.load(open("../../../trail.json"))

spins={'Sc':1, 'Ti':2, 'V':3, 'Cr':6, 'Mn':5, 'Fe':4, 'Cu':1}

nd={'Sc':(1,0), 'Ti':(2,0), 'V':(3,0), 'Cr':(5,0), 'Mn':(5,0), 'Fe':(5,1), 'Cu':(5,5)}

cas={'Sc':3, 'Ti':4, 'V':5, 'Cr':6, 'Mn':7, 'Fe':8, 'Cu':11}

datacsv={}
for nm in ['atom','charge','method','basis','pseudopotential','hf',
           'totalenergy','totalenergy-stocherr','totalenergy-syserr']:
  datacsv[nm]=[]

basis='vtz'
el='Fe'
charge=0

mol=gto.Mole()
mol.ecp={}
mol.basis={}
mol.ecp[el]=gto.basis.parse_ecp(df[el]['ecp'])
mol.basis[el]=gto.basis.parse(df[el][basis])
mol.charge=charge
if el == 'Cr' or el == 'Cu':
  mol.spin=spins[el]-charge
else:
  mol.spin=spins[el]+charge
mol.build(atom="%s 0. 0. 0."%el,verbose=4)

m=ROHF(mol)
m.level_shift=1000.0
dm=m.from_chk("../../../../HF/atoms/"+el+basis+str(charge)+".chk")
hf=m.kernel(dm)
m.analyze()

from pyscf.shciscf import shci
mc = shci.SHCISCF(m, 6, cas[el]-charge)
#mc.fcisolver.conv_tol = 1e-14
mc.fcisolver.mpiprefix="mpirun -np 28"
mc.fcisolver.num_thrds=12
mc.verbose = 4
cas=mc.kernel()[0]
 
from pyscf.icmpspt import icmpspt
pt=icmpspt.icmpspt(mc,rdmM=500, PTM=1000,\
                          pttype="MRLCC",\
                          third_order=True,\
                          fully_ic=True,\
                          do_dm4=True)

datacsv['atom'].append(el)
datacsv['charge'].append(charge)
datacsv['method'].append('MRPT')
datacsv['basis'].append(basis)
datacsv['pseudopotential'].append('trail')
datacsv['hf'].append(hf)
datacsv['totalenergy'].append(cas+pt)
datacsv['totalenergy-stocherr'].append(0.0)
datacsv['totalenergy-syserr'].append(0.0)
pd.DataFrame(datacsv).to_csv(el+".csv",index=False)

#INFO: ******************** input file end ********************


System: ('Linux', 'bnode0304.rc.int.colorado.edu', '3.10.0-514.41.1.el7.x86_64', '#1 SMP Wed Jan 17 10:26:16 EST 2018', 'x86_64', 'x86_64')  Threads 28
Python 2.7.11 (default, Mar 22 2016, 01:42:54) 
[GCC Intel(R) C++ gcc 4.8 mode]
numpy 1.11.1  scipy 0.17.1
Date: Thu Mar 29 15:10:06 2018
PySCF version 1.4
PySCF path  /projects/bamu3429/softwares/pyscf_uptodate/pyscf
GIT ORIG_HEAD e2292e6edec2b0e0024c21b81de03db1d7bd4121
GIT HEAD      ref: refs/heads/master
GIT master branch  f3591ef22170896a4cdc2aadaa6f5da388ffcadb

[INPUT] VERBOSE 4
[INPUT] num atoms = 1
[INPUT] num electrons = 16
[INPUT] charge = 0
[INPUT] spin (= nelec alpha-beta = 2S) = 4
[INPUT] symmetry False subgroup None
[INPUT]  1 Fe     0.000000000000   0.000000000000   0.000000000000 AA    0.000000000000   0.000000000000   0.000000000000 Bohr
[INPUT] ---------------- BASIS SET ---------------- 
[INPUT] l, kappa, [nprim/nctr], expnt,             c_1 c_2 ...
[INPUT] Fe
[INPUT] 0    0    [12   /1   ]  41.79315189       0.013363
                                21.4479766        -0.225831
                                13.50597996       1.092302
                                9.47978339        -1.379238
                                4.48116767        0.183004
                                2.00533715        0.377557
                                1.21557711        0.591529
                                0.52042955        0.236703
                                0.24120153        -0.029854
                                0.11142434        0.02048
                                0.05213724        -0.006828
                                0.02419858        0.002604
[INPUT] 0    0    [12   /1   ]  41.79315189       -0.002034
                                21.4479766        0.04181
                                13.50597996       -0.22265
                                9.47978339        0.296462
                                4.48116767        -0.039261
                                2.00533715        -0.090727
                                1.21557711        -0.230375
                                0.52042955        -0.197211
                                0.24120153        0.111234
                                0.11142434        0.439139
                                0.05213724        0.516418
                                0.02419858        0.126845
[INPUT] 0    0    [12   /1   ]  41.79315189       -0.004624
                                21.4479766        0.139122
                                13.50597996       -0.88629
                                9.47978339        1.342491
                                4.48116767        -0.386645
                                2.00533715        -1.289136
                                1.21557711        0.203208
                                0.52042955        0.587093
                                0.24120153        0.75499
                                0.11142434        0.148125
                                0.05213724        -0.57141
                                0.02419858        -0.318371
[INPUT] 0    0    [12   /1   ]  41.79315189       -0.003085
                                21.4479766        0.157954
                                13.50597996       -1.176019
                                9.47978339        1.974187
                                4.48116767        -0.963904
                                2.00533715        -2.385892
                                1.21557711        2.080105
                                0.52042955        1.415026
                                0.24120153        -1.191846
                                0.11142434        -1.007091
                                0.05213724        0.554221
                                0.02419858        0.59334
[INPUT] 0    0    [1    /1   ]  0.02419858           1
[INPUT] 0    0    [1    /1   ]  0.01123134           1
[INPUT] 1    0    [12   /1   ]  66.19105244       0.00032
                                34.58074578       -0.003142
                                17.77781378       0.029707
                                9.38371315        -0.152873
                                5.85185491        0.094627
                                3.39352009        0.227547
                                1.80084269        0.448024
                                0.88349057        0.318306
                                0.45376195        0.097682
                                0.18864625        0.012314
                                0.07756623        -0.001004
                                0.03189313        0.000474
[INPUT] 1    0    [12   /1   ]  66.19105244       -1.8e-05
                                34.58074578       0.000416
                                17.77781378       -0.005911
                                9.38371315        0.03555
                                5.85185491        -0.025962
                                3.39352009        -0.059781
                                1.80084269        -0.122371
                                0.88349057        -0.102075
                                0.45376195        0.039881
                                0.18864625        0.346137
                                0.07756623        0.528115
                                0.03189313        0.237416
[INPUT] 1    0    [12   /1   ]  66.19105244       -0.000861
                                34.58074578       0.002748
                                17.77781378       0.01593
                                9.38371315        -0.209763
                                5.85185491        0.179034
                                3.39352009        0.814145
                                1.80084269        0.03855
                                0.88349057        -0.875838
                                0.45376195        -0.34746
                                0.18864625        0.631788
                                0.07756623        0.399045
                                0.03189313        0.003561
[INPUT] 1    0    [12   /1   ]  66.19105244       -0.001607
                                34.58074578       0.006226
                                17.77781378       0.025483
                                9.38371315        -0.54041
                                5.85185491        1.16772
                                3.39352009        0.772818
                                1.80084269        -1.572667
                                0.88349057        -0.61263
                                0.45376195        1.561245
                                0.18864625        -0.107594
                                0.07756623        -0.646326
                                0.03189313        0.002096
[INPUT] 1    0    [1    /1   ]  0.03189313           1
[INPUT] 1    0    [1    /1   ]  0.01311358           1
[INPUT] 2    0    [10   /1   ]  58.21685909       0.000311
                                24.96806153       -0.010386
                                12.44413704       0.126915
                                5.48395408        0.166806
                                2.79137309        0.262721
                                1.34407118        0.316542
                                0.61230651        0.280074
                                0.27095461        0.158069
                                0.12811374        0.049028
                                0.05904405        0.008369
[INPUT] 2    0    [10   /1   ]  58.21685909       0.000374
                                24.96806153       0.007401
                                12.44413704       -0.12958
                                5.48395408        -0.233171
                                2.79137309        -0.387571
                                1.34407118        -0.056586
                                0.61230651        0.33938
                                0.27095461        0.403227
                                0.12811374        0.20401
                                0.05904405        0.046291
[INPUT] 2    0    [10   /1   ]  58.21685909       -0.001716
                                24.96806153       -0.000551
                                12.44413704       0.130748
                                5.48395408        0.429828
                                2.79137309        0.259447
                                1.34407118        -0.684658
                                0.61230651        -0.396877
                                0.27095461        0.349872
                                0.12811374        0.4289
                                0.05904405        0.113763
[INPUT] 2    0    [1    /1   ]  0.05904405           1
[INPUT] 2    0    [1    /1   ]  0.02721175           1
[INPUT] 3    0    [1    /1   ]  3.759443             1
[INPUT] 3    0    [1    /1   ]  1.028316             1
[INPUT] 3    0    [1    /1   ]  0.28127405           1
[INPUT] 4    0    [1    /1   ]  3.347806             1
[INPUT] 4    0    [1    /1   ]  0.91572139           1
nuclear repulsion = 0
number of shells = 22
number of NR pGTOs = 399
number of NR cGTOs = 88
basis = {'Fe': [[0, [41.79315189, 0.013363], [21.4479766, -0.225831], [13.50597996, 1.092302], [9.47978339, -1.379238], [4.48116767, 0.183004], [2.00533715, 0.377557], [1.21557711, 0.591529], [0.52042955, 0.236703], [0.24120153, -0.029854], [0.11142434, 0.02048], [0.05213724, -0.006828], [0.02419858, 0.002604]], [0, [41.79315189, -0.002034], [21.4479766, 0.04181], [13.50597996, -0.22265], [9.47978339, 0.296462], [4.48116767, -0.039261], [2.00533715, -0.090727], [1.21557711, -0.230375], [0.52042955, -0.197211], [0.24120153, 0.111234], [0.11142434, 0.439139], [0.05213724, 0.516418], [0.02419858, 0.126845]], [0, [41.79315189, -0.004624], [21.4479766, 0.139122], [13.50597996, -0.88629], [9.47978339, 1.342491], [4.48116767, -0.386645], [2.00533715, -1.289136], [1.21557711, 0.203208], [0.52042955, 0.587093], [0.24120153, 0.75499], [0.11142434, 0.148125], [0.05213724, -0.57141], [0.02419858, -0.318371]], [0, [41.79315189, -0.003085], [21.4479766, 0.157954], [13.50597996, -1.176019], [9.47978339, 1.974187], [4.48116767, -0.963904], [2.00533715, -2.385892], [1.21557711, 2.080105], [0.52042955, 1.415026], [0.24120153, -1.191846], [0.11142434, -1.007091], [0.05213724, 0.554221], [0.02419858, 0.59334]], [0, [0.02419858, 1.0]], [0, [0.01123134, 1.0]], [1, [66.19105244, 0.00032], [34.58074578, -0.003142], [17.77781378, 0.029707], [9.38371315, -0.152873], [5.85185491, 0.094627], [3.39352009, 0.227547], [1.80084269, 0.448024], [0.88349057, 0.318306], [0.45376195, 0.097682], [0.18864625, 0.012314], [0.07756623, -0.001004], [0.03189313, 0.000474]], [1, [66.19105244, -1.8e-05], [34.58074578, 0.000416], [17.77781378, -0.005911], [9.38371315, 0.03555], [5.85185491, -0.025962], [3.39352009, -0.059781], [1.80084269, -0.122371], [0.88349057, -0.102075], [0.45376195, 0.039881], [0.18864625, 0.346137], [0.07756623, 0.528115], [0.03189313, 0.237416]], [1, [66.19105244, -0.000861], [34.58074578, 0.002748], [17.77781378, 0.01593], [9.38371315, -0.209763], [5.85185491, 0.179034], [3.39352009, 0.814145], [1.80084269, 0.03855], [0.88349057, -0.875838], [0.45376195, -0.34746], [0.18864625, 0.631788], [0.07756623, 0.399045], [0.03189313, 0.003561]], [1, [66.19105244, -0.001607], [34.58074578, 0.006226], [17.77781378, 0.025483], [9.38371315, -0.54041], [5.85185491, 1.16772], [3.39352009, 0.772818], [1.80084269, -1.572667], [0.88349057, -0.61263], [0.45376195, 1.561245], [0.18864625, -0.107594], [0.07756623, -0.646326], [0.03189313, 0.002096]], [1, [0.03189313, 1.0]], [1, [0.01311358, 1.0]], [2, [58.21685909, 0.000311], [24.96806153, -0.010386], [12.44413704, 0.126915], [5.48395408, 0.166806], [2.79137309, 0.262721], [1.34407118, 0.316542], [0.61230651, 0.280074], [0.27095461, 0.158069], [0.12811374, 0.049028], [0.05904405, 0.008369]], [2, [58.21685909, 0.000374], [24.96806153, 0.007401], [12.44413704, -0.12958], [5.48395408, -0.233171], [2.79137309, -0.387571], [1.34407118, -0.056586], [0.61230651, 0.33938], [0.27095461, 0.403227], [0.12811374, 0.20401], [0.05904405, 0.046291]], [2, [58.21685909, -0.001716], [24.96806153, -0.000551], [12.44413704, 0.130748], [5.48395408, 0.429828], [2.79137309, 0.259447], [1.34407118, -0.684658], [0.61230651, -0.396877], [0.27095461, 0.349872], [0.12811374, 0.4289], [0.05904405, 0.113763]], [2, [0.05904405, 1.0]], [2, [0.02721175, 1.0]], [3, [3.759443, 1.0]], [3, [1.028316, 1.0]], [3, [0.28127405, 1.0]], [4, [3.347806, 1.0]], [4, [0.91572139, 1.0]]]}
ecp = {'Fe': [10, [[-1, [[], [[16.90683491, 16.0]], [[18.40258134, 26847.81569895], [6.30300831, -133.54888707], [18.42848726, -26765.4049232], [18.43432023, 1.00742417]], [[7.01300654, 270.50935856]]]], [0, [[], [], [[9.62463353, 20308.8999348], [9.1270955, -17595.21707731], [7.5416384, 1884.69012383], [12.70900949, -4483.50209856], [8.14863339, -1094.38597968], [16.27611739, 1032.95376659]], []]], [1, [[], [], [[11.36514719, -905.00711112], [14.56762424, 34640.9358259], [15.05861359, -42299.94223895], [17.41337089, 10633.68808757], [18.3746752, -5844.19723669], [17.04734437, 3803.80414779]], []]], [2, [[], [], [[10.13935738, -11031.18647055], [13.45796076, 16711.37502047], [10.97387824, 37989.95033676], [11.92919033, -41782.92514683], [17.7123012, 3812.58339812], [17.32108913, -5718.00854971]], []]]]]}
CPU time:         3.49


******** <class 'pyscf.scf.rohf.ROHF'> flags ********
method = ROHF
initial guess = minao
damping factor = 0
level shift factor = 1000.0
DIIS = <class 'pyscf.scf.diis.CDIIS'>
DIIS start cycle = 1
DIIS space = 8
SCF tol = 1e-09
SCF gradient tol = None
max. SCF cycles = 50
direct_scf = True
direct_scf_tol = 1e-13
chkfile to save SCF result = /projects/bamu3429/BENCHMARK/fresh_atoms/MRPT/vtz/atoms/Fe_0/tmp9Ow3X4
max_memory 4000 MB (current use 161 MB)
num. doubly occ = 6  num. singly occ = 4
Set gradient conv threshold to 3.16228e-05
init E= -123.042331945492
  HOMO = 499.856787520075  LUMO = 1000.01972177892
cycle= 1 E= -123.042331945492  delta_E= -3.13e-13  |g|= 1.32e-05  |ddm|= 4.2e-08
  HOMO = -0.14321248101949  LUMO = 0.0197217789109572
Extra cycle  E= -123.042331945499  delta_E= -6.82e-12  |g|= 5.54e-06  |ddm|= 2.98e-05
converged SCF energy = -123.042331945499
**** MO energy ****
                Roothaan           | alpha              | beta
MO #1   energy= -4.4164374598447   | -4.60306767689806  | -4.22980720848439  occ= 2
MO #2   energy= -2.79849223217211  | -3.07225221231214  | -2.52473225203208  occ= 2
MO #3   energy= -2.79173683559401  | -2.99413847395592  | -2.58933519723211  occ= 2
MO #4   energy= -2.79173683559401  | -2.99413847395597  | -2.58933519723206  occ= 2
MO #5   energy= -0.544981912820244 | -0.609855845207125 | -0.480107980433365 occ= 2
MO #6   energy= -0.262255109465658 | -0.27619101207952  | -0.248319344978829 occ= 2
MO #7   energy= -0.190741801959706 | -0.704334274642642 | 0.322850476142123  occ= 1
MO #8   energy= -0.178777429919358 | -0.693388638449869 | 0.335833875091385  occ= 1
MO #9   energy= -0.178777429919296 | -0.693388638449817 | 0.335833875091453  occ= 1
MO #10  energy= -0.14321248101949  | -0.661784058537025 | 0.375357740666563  occ= 1
MO #11  energy= 0.0197217789109572 | 0.0184457585815948 | 0.0209977992403238 occ= 0
MO #12  energy= 0.0209348136730101 | 0.0200962132746768 | 0.0217734140713454 occ= 0
MO #13  energy= 0.0209348136730134 | 0.0200962132746786 | 0.0217734140713469 occ= 0
MO #14  energy= 0.0236094932769128 | 0.0231038019621548 | 0.024115182415724  occ= 0
MO #15  energy= 0.0644266568692469 | 0.0610208973800725 | 0.0678324163584219 occ= 0
MO #16  energy= 0.0673103277846237 | 0.0646886323324344 | 0.0699320232368111 occ= 0
MO #17  energy= 0.0673103277846296 | 0.0646886323324406 | 0.0699320232368155 occ= 0
MO #18  energy= 0.0824855345615102 | 0.0822902334142528 | 0.0826807596369088 occ= 0
MO #19  energy= 0.082572702539126  | 0.0823720092277882 | 0.0827733080651802 occ= 0
MO #20  energy= 0.0825727025391272 | 0.0823720092277892 | 0.0827733080651811 occ= 0
MO #21  energy= 0.0828174666563521 | 0.082741902636011  | 0.0828930306766992 occ= 0
MO #22  energy= 0.082842850829047  | 0.0826270480076059 | 0.0830586101937235 occ= 0
MO #23  energy= 0.195308317255456  | 0.18946230349107   | 0.201154323111457  occ= 0
MO #24  energy= 0.250607023962039  | 0.246099469472883  | 0.255114750265681  occ= 0
MO #25  energy= 0.251330160362755  | 0.246699563586777  | 0.255960819037607  occ= 0
MO #26  energy= 0.251330160362759  | 0.24669956358678   | 0.25596081903761   occ= 0
MO #27  energy= 0.251822659659803  | 0.250248929218367  | 0.253396390101241  occ= 0
MO #28  energy= 0.25362780075012   | 0.248659793283705  | 0.258596305336548  occ= 0
MO #29  energy= 0.264935952342081  | 0.251719535376018  | 0.278152369308142  occ= 0
MO #30  energy= 0.271759505860038  | 0.261345224089564  | 0.282173787630504  occ= 0
MO #31  energy= 0.27175950586004   | 0.261345224089569  | 0.282173787630504  occ= 0
MO #32  energy= 0.916180686328916  | 0.893656792760554  | 0.938704560647256  occ= 0
MO #33  energy= 1.02187440623398   | 1.00796198063863   | 1.03578683182932   occ= 0
MO #34  energy= 1.02258031976413   | 1.00924524416518   | 1.03591539536307   occ= 0
MO #35  energy= 1.02258031976413   | 1.00924524416519   | 1.03591539536307   occ= 0
MO #36  energy= 1.02413726605319   | 1.01378101956221   | 1.03449351254418   occ= 0
MO #37  energy= 1.02547471018683   | 1.01066289353131   | 1.04028652684236   occ= 0
MO #38  energy= 1.02810327219553   | 1.01835887695968   | 1.03784766743138   occ= 0
MO #39  energy= 1.02810327219553   | 1.01835887695968   | 1.03784766743138   occ= 0
MO #40  energy= 1.11399328184225   | 1.09644630205281   | 1.13154026163168   occ= 0
MO #41  energy= 1.11549139245224   | 1.06173053188788   | 1.16925237377544   occ= 0
MO #42  energy= 1.12010724537533   | 1.06516926875472   | 1.17504510803204   occ= 0
MO #43  energy= 1.12010724537536   | 1.06516926875475   | 1.17504510803207   occ= 0
MO #44  energy= 1.13538370089908   | 1.07791260150257   | 1.19285557256995   occ= 0
MO #45  energy= 2.03663922340355   | 1.97876163357694   | 2.09451681323018   occ= 0
MO #46  energy= 2.06229981211123   | 2.01761952610376   | 2.1069800981187    occ= 0
MO #47  energy= 2.06229981211127   | 2.01761952610382   | 2.10698009811872   occ= 0
MO #48  energy= 3.45756883894875   | 3.36538101641546   | 3.54975666148203   occ= 0
MO #49  energy= 3.45859792893438   | 3.37610192154552   | 3.54109393632325   occ= 0
MO #50  energy= 3.45859792893439   | 3.37610192154556   | 3.54109393632323   occ= 0
MO #51  energy= 3.46049969744657   | 3.39224231394562   | 3.52875708094753   occ= 0
MO #52  energy= 3.46996582453635   | 3.37284262067362   | 3.56708902839908   occ= 0
MO #53  energy= 3.47262059756792   | 3.40372079401049   | 3.54152040112537   occ= 0
MO #54  energy= 3.47262059756792   | 3.4037207940105    | 3.54152040112534   occ= 0
MO #55  energy= 4.15781100776808   | 4.12501827712146   | 4.19060373791261   occ= 0
MO #56  energy= 4.15903808774831   | 4.12600901682388   | 4.1920671581718    occ= 0
MO #57  energy= 4.15903808774832   | 4.12600901682388   | 4.19206715817181   occ= 0
MO #58  energy= 4.16153526476158   | 4.12685393514572   | 4.19621659435289   occ= 0
MO #59  energy= 4.1658077695457    | 4.13864824300902   | 4.19296729608237   occ= 0
MO #60  energy= 4.17165197420026   | 4.14452481641156   | 4.19877913154023   occ= 0
MO #61  energy= 4.17165197420026   | 4.14452481641158   | 4.19877913154025   occ= 0
MO #62  energy= 4.18306498508557   | 4.1606498415395    | 4.20548012863164   occ= 0
MO #63  energy= 4.18315143457612   | 4.16105066552317   | 4.20525220276413   occ= 0
MO #64  energy= 4.65477163746719   | 4.55404130291779   | 4.75550205015069   occ= 0
MO #65  energy= 4.66027042353942   | 4.62615253750076   | 4.6943883095781    occ= 0
MO #66  energy= 4.66473455426483   | 4.56411058547065   | 4.76535857176578   occ= 0
MO #67  energy= 4.66473455426488   | 4.56411058547069   | 4.76535857176582   occ= 0
MO #68  energy= 4.69112022648595   | 4.58781783538793   | 4.79442274817768   occ= 0
MO #69  energy= 5.18550887826772   | 5.12490900078473   | 5.24610875891081   occ= 0
MO #70  energy= 8.22361843985406   | 8.146770340347     | 8.30046653936112   occ= 0
MO #71  energy= 8.26144093824604   | 8.20257643396499   | 8.32030544252708   occ= 0
MO #72  energy= 8.2614409382461    | 8.20257643396509   | 8.32030544252711   occ= 0
MO #73  energy= 11.0690569399658   | 10.9402907413767   | 11.1978231385548   occ= 0
MO #74  energy= 11.0727205647083   | 10.9489123349679   | 11.1965287944489   occ= 0
MO #75  energy= 11.0727205647084   | 10.9489123349679   | 11.1965287944489   occ= 0
MO #76  energy= 11.0810899630727   | 10.9847333189265   | 11.1774466072188   occ= 0
MO #77  energy= 11.0870187828672   | 10.9514430660525   | 11.2225944996819   occ= 0
MO #78  energy= 11.1009570994436   | 11.0123710851877   | 11.1895431136995   occ= 0
MO #79  energy= 11.1009570994436   | 11.0123710851877   | 11.1895431136996   occ= 0
MO #80  energy= 14.6381517867983   | 14.5549178422799   | 14.7213857301979   occ= 0
MO #81  energy= 14.640356258251    | 14.5564201580228   | 14.7242923563022   occ= 0
MO #82  energy= 14.6403562582511   | 14.5564201580228   | 14.7242923563023   occ= 0
MO #83  energy= 14.6446457404195   | 14.5568850041809   | 14.7324064759829   occ= 0
MO #84  energy= 14.654004213979    | 14.5850847679483   | 14.7229236600097   occ= 0
MO #85  energy= 14.6648417148224   | 14.5962949134496   | 14.7333885139853   occ= 0
MO #86  energy= 14.6648417148224   | 14.5962949134496   | 14.7333885139853   occ= 0
MO #87  energy= 14.6871010145892   | 14.6304143585816   | 14.743787670597    occ= 0
MO #88  energy= 14.6873503607724   | 14.6316466145258   | 14.7430541394447   occ= 0
 ** Mulliken pop on meta-lowdin orthogonal AOs  **
 ** Mulliken pop  **
pop of  0Fe 3s        1.99996
pop of  0Fe 4s        1.99784
pop of  0Fe 5s        0.00094
pop of  0Fe 6s        0.00027
pop of  0Fe 7s        0.00028
pop of  0Fe 8s        0.00019
pop of  0Fe 3px       1.99986
pop of  0Fe 3py       1.99986
pop of  0Fe 3pz       1.99984
pop of  0Fe 4px       0.00004
pop of  0Fe 4py       0.00004
pop of  0Fe 4pz       0.00010
pop of  0Fe 5px       0.00001
pop of  0Fe 5py       0.00001
pop of  0Fe 5pz       0.00002
pop of  0Fe 6px       0.00000
pop of  0Fe 6py       0.00000
pop of  0Fe 6pz       0.00001
pop of  0Fe 7px       0.00000
pop of  0Fe 7py       0.00000
pop of  0Fe 7pz       0.00000
pop of  0Fe 8px       0.00000
pop of  0Fe 8py       0.00000
pop of  0Fe 8pz       0.00000
pop of  0Fe 3dxy      1.99996
pop of  0Fe 3dyz      0.99720
pop of  0Fe 3dz^2     0.99706
pop of  0Fe 3dxz      0.99720
pop of  0Fe 3dx2-y2    0.99803
pop of  0Fe 4dxy      0.00000
pop of  0Fe 4dyz      0.00211
pop of  0Fe 4dz^2     0.00259
pop of  0Fe 4dxz      0.00211
pop of  0Fe 4dx2-y2    0.00146
pop of  0Fe 5dxy      0.00000
pop of  0Fe 5dyz      0.00021
pop of  0Fe 5dz^2     0.00026
pop of  0Fe 5dxz      0.00021
pop of  0Fe 5dx2-y2    0.00015
pop of  0Fe 6dxy      0.00003
pop of  0Fe 6dyz      0.00043
pop of  0Fe 6dz^2     0.00056
pop of  0Fe 6dxz      0.00043
pop of  0Fe 6dx2-y2    0.00033
pop of  0Fe 7dxy      0.00000
pop of  0Fe 7dyz      0.00002
pop of  0Fe 7dz^2     0.00003
pop of  0Fe 7dxz      0.00002
pop of  0Fe 7dx2-y2    0.00002
pop of  0Fe 4fy^3     0.00002
pop of  0Fe 4fxyz     0.00000
pop of  0Fe 4fyz^2    0.00000
pop of  0Fe 4fz^3     0.00002
pop of  0Fe 4fxz^2    0.00000
pop of  0Fe 4fzx^2    0.00000
pop of  0Fe 4fx^3     0.00002
pop of  0Fe 5fy^3     0.00004
pop of  0Fe 5fxyz     0.00000
pop of  0Fe 5fyz^2    0.00000
pop of  0Fe 5fz^3     0.00002
pop of  0Fe 5fxz^2    0.00000
pop of  0Fe 5fzx^2    0.00000
pop of  0Fe 5fx^3     0.00004
pop of  0Fe 6fy^3     0.00001
pop of  0Fe 6fxyz     0.00000
pop of  0Fe 6fyz^2    0.00000
pop of  0Fe 6fz^3     0.00000
pop of  0Fe 6fxz^2    0.00000
pop of  0Fe 6fzx^2    0.00000
pop of  0Fe 6fx^3     0.00001
pop of  0Fe 5g-4      0.00000
pop of  0Fe 5g-3      0.00000
pop of  0Fe 5g-2      0.00000
pop of  0Fe 5g-1      0.00001
pop of  0Fe 5g 0      0.00001
pop of  0Fe 5g 1      0.00001
pop of  0Fe 5g 2      0.00000
pop of  0Fe 5g 3      0.00000
pop of  0Fe 5g 4      0.00000
pop of  0Fe 6g-4      0.00000
pop of  0Fe 6g-3      0.00000
pop of  0Fe 6g-2      0.00000
pop of  0Fe 6g-1      0.00001
pop of  0Fe 6g 0      0.00001
pop of  0Fe 6g 1      0.00001
pop of  0Fe 6g 2      0.00000
pop of  0Fe 6g 3      0.00000
pop of  0Fe 6g 4      0.00000
 ** Mulliken atomic charges  **
charge of  0Fe =     -0.00000

******** <class 'pyscf.mcscf.mc1step.CASSCF'> flags ********
CAS (6e+2e, 6o), ncore = 4, nvir = 78
max_cycle_macro = 50
max_cycle_micro = 4
conv_tol = 1e-07
conv_tol_grad = None
orbital rotation max_stepsize = 0.02
augmented hessian ah_max_cycle = 30
augmented hessian ah_conv_tol = 1e-12
augmented hessian ah_linear dependence = 1e-14
augmented hessian ah_level shift = 0
augmented hessian ah_start_tol = 2.5
augmented hessian ah_start_cycle = 3
augmented hessian ah_grad_trust_region = 3
kf_trust_region = 3
kf_interval = 4
ci_response_space = 4
ci_grad_trust_region = 3
with_dep4 0
natorb = False
canonicalization = True
chkfile = ./scratch/144617/tmp4Ji5KD
max_memory 4000 MB (current use 250 MB)
internal_rotation = False

******** SHCI flags ********
executable             = /home/bamu3429/softwares/dice/Dice
mpiprefix              = mpirun -np 28
scratchDirectory       = ./scratch/144617
integralFile           = ./FCIDUMP
configFile             = ./input.dat
outputFile             = ./output.dat
maxIter                = 6
sweep_iter             = []
sweep_epsilon          = []
nPTiter                = 0
Stochastic             = True
fullrestart            = False
restart                = False
num_thrds              = 12
memory                 = None

CASCI E = -123.042331945498  S^2 = 6.0000000
Set conv_tol_grad to 0.000316228
macro iter 1 (1 JK  1 micro), CASSCF E = -123.042331945498  dE = 0  S^2 = 6.0000000
               |grad[o]|=5.09e-06  |grad[c]|= None  |ddm|=    0
1-step CASSCF converged in 1 macro (1 JK 1 micro) steps
CASSCF canonicalization
CASSCF energy = -123.042331945498


--------------------------------------------------
                 ICMPSPT CALCULATION              
--------------------------------------------------

Perturbation type: MRLCC
With fully internally contracted scheme
With third order correction

Preparing necessary RDMs
......production of RDMs took       0.87 sec
Reading binary 4RDM from DICE
......reading the RDM took          0.97 sec

(GOOD) Trace 4RDM:   1680.0 =    8*    7*    6*    5
(GOOD) Trace 3RDM:    336.0 =    8*    7*    6
(GOOD) Trace 2RDM:     56.0 =    8*    7
(GOOD) Trace 1RDM:      8.0 =    8

Producing the integrals
......production of INT took      90.22 sec

Energy_core =  -101.635129386
Energy      =  -123.042331945

WARNING: Have to use natural orbitals from CAASCF
         offdiagonal elements: 1.0316799673

Basic ingredients written to int/
......savings of INGREDIENTS took      17.79 sec

Second-order:
perturber CCVV --        -0.099063495
perturber CCAV --        -0.036659802
perturber ACVV --        -0.190535501
perturber CCAA --        -0.017725996
perturber AAVV --        -0.198892750
perturber CAAV --        -0.107326515
perturber AAAV --        -0.008061421
perturber AAAC --        -0.000000000
Total:                   -0.658265479

Third-order:              0.000394754

Total PT       --        -0.657870725

