 &FCI NORB=3 ,NELEC=4 ,MS2=2,
  ORBSYM=1,1,1,
  ISYM=1,
 &END
  7.852162588856e-01    1  1  1  1
  3.987944874851e-02    2  1  2  1
  7.254859891888e-01    2  2  1  1
  8.292568118917e-01    2  2  2  2
  3.987944846701e-02    3  1  3  1
  4.207863080445e-02    3  2  3  2
  7.254859846499e-01    3  3  1  1
  7.450995448017e-01    3  3  2  2
  8.292568009295e-01    3  3  3  3
 -2.763616194057e+00    1  1  0  0
 -2.817600408796e+00    2  2  0  0
 -2.817600395542e+00    3  3  0  0
     -8.799983964293   0  0  0  0
