 &FCI NORB=3 ,NELEC=3 ,MS2=3,
  ORBSYM=1,1,1,
  ISYM=1,
 &END
  9.132799487746e-01    1  1  1  1
 -1.920913809920e-12    2  1  1  1
  4.689914538873e-02    2  1  2  1
  8.194816563317e-01    2  2  1  1
 -1.873615586344e-12    2  2  2  1
  9.132799454436e-01    2  2  2  2
 -3.710953604718e-12    3  1  1  1
 -3.375729099836e-12    3  1  2  2
  4.689914430034e-02    3  1  3  1
  4.689914420301e-02    3  2  3  2
  8.194816398739e-01    3  3  1  1
 -1.686238174087e-12    3  3  2  1
  8.194816384030e-01    3  3  2  2
 -3.832975564529e-12    3  3  3  1
  9.132799081727e-01    3  3  3  3
 -2.873786154602e+00    1  1  0  0
  3.075166286654e-12    2  1  0  0
 -2.873786151859e+00    2  2  0  0
  6.137325352032e-12    3  1  0  0
  1.393344505671e-12    3  2  0  0
 -2.873786121167e+00    3  3  0  0
     -8.906509447763   0  0  0  0
