#INFO: **** input file is /projects/bamu3429/BENCHMARK/fresh_atoms/MRPT/vtz/atoms/O_1/mrpt.py ****
import json
from pyscf import gto,scf,mcscf, fci, lo, ci, cc
from pyscf.scf import ROHF, UHF,ROKS
import numpy as np
import pandas as pd

# THIS IS WERE IT STARTS ====================================

df=json.load(open("../../../trail.json"))

spins={'Sc':1, 'Ti':2, 'V':3, 'Cr':6, 'Mn':5, 'Fe':4, 'Cu':1}

nd={'Sc':(1,0), 'Ti':(2,0), 'V':(3,0), 'Cr':(5,0), 'Mn':(5,0), 'Fe':(5,1), 'Cu':(5,5)}

cas={'Sc':3, 'Ti':4, 'V':5, 'Cr':6, 'Mn':7, 'Fe':8, 'Cu':11}

datacsv={}
for nm in ['atom','charge','method','basis','pseudopotential','hf',
           'totalenergy','totalenergy-stocherr','totalenergy-syserr']:
  datacsv[nm]=[]

basis='vtz'
el='O'
charge=1

mol=gto.Mole()
mol.ecp={}
mol.basis={}
mol.ecp[el]=gto.basis.parse_ecp(df[el]['ecp'])
mol.basis[el]=gto.basis.parse(df[el][basis])
mol.charge=charge
mol.spin=3
mol.build(atom="%s 0. 0. 0."%el,verbose=4)

m=ROHF(mol)
m.level_shift=1000.0
#dm=m.from_chk("../../../../HF/atoms/"+el+basis+str(charge)+".chk")
hf=m.kernel()#dm)
m.analyze()

from pyscf.shciscf import shci
mc = shci.SHCISCF(m, 3, 3)
#mc.fcisolver.conv_tol = 1e-14
mc.fcisolver.mpiprefix="srun -n20"
mc.fcisolver.num_thrds=12
mc.verbose = 4
cas=mc.kernel()[0]
 
from pyscf.icmpspt import icmpspt
pt=icmpspt.icmpspt(mc,rdmM=500, PTM=1000,\
                          pttype="MRLCC",\
                          third_order=True,\
                          fully_ic=True,\
                          do_dm4=True)

datacsv['atom'].append(el)
datacsv['charge'].append(charge)
datacsv['method'].append('MRPT')
datacsv['basis'].append(basis)
datacsv['pseudopotential'].append('trail')
datacsv['hf'].append(hf)
datacsv['totalenergy'].append(cas+pt)
datacsv['totalenergy-stocherr'].append(0.0)
datacsv['totalenergy-syserr'].append(0.0)
pd.DataFrame(datacsv).to_csv(el+".csv",index=False)

#INFO: ******************** input file end ********************


System: ('Linux', 'bnode0302.rc.int.colorado.edu', '3.10.0-514.41.1.el7.x86_64', '#1 SMP Wed Jan 17 10:26:16 EST 2018', 'x86_64', 'x86_64')  Threads 28
Python 2.7.11 (default, Mar 22 2016, 01:42:54) 
[GCC Intel(R) C++ gcc 4.8 mode]
numpy 1.11.1  scipy 0.17.1
Date: Wed Apr 18 16:36:48 2018
PySCF version 1.4.6
PySCF path  /projects/bamu3429/softwares/pyscf_uptodate/pyscf
GIT ORIG_HEAD f3591ef22170896a4cdc2aadaa6f5da388ffcadb
GIT HEAD      ref: refs/heads/master
GIT master branch  1847583fb1d2472321833d3c71c8b7008e5fabf5

[INPUT] VERBOSE 4
[INPUT] num atoms = 1
[INPUT] num electrons = 5
[INPUT] charge = 1
[INPUT] spin (= nelec alpha-beta = 2S) = 3
[INPUT] symmetry False subgroup None
[INPUT]  1 O      0.000000000000   0.000000000000   0.000000000000 AA    0.000000000000   0.000000000000   0.000000000000 Bohr
[INPUT] ---------------- BASIS SET ---------------- 
[INPUT] l, kappa, [nprim/nctr], expnt,             c_1 c_2 ...
[INPUT] O
[INPUT] 0    0    [10   /1   ]  57.663349         -0.002794
                                35.726816         0.023976
                                22.453757         -0.115974
                                14.732301         0.288033
                                9.739917          -0.274786
                                5.042008          -0.083789
                                2.157818          0.063778
                                1.002916          0.410182
                                0.421839          0.504044
                                0.173041          0.172152
[INPUT] 0    0    [1    /1   ]  1.849096             1
[INPUT] 0    0    [1    /1   ]  0.255434             1
[INPUT] 0    0    [1    /1   ]  0.141483             1
[INPUT] 1    0    [10   /1   ]  52.47406          -0.000522
                                32.138432         0.004857
                                19.458579         -0.027749
                                11.839344         0.074258
                                7.91003           0.014369
                                3.670858          0.153479
                                1.53966           0.283685
                                0.647119          0.358201
                                0.267853          0.29559
                                0.107198          0.104889
[INPUT] 1    0    [1    /1   ]  0.622175             1
[INPUT] 1    0    [1    /1   ]  0.193391             1
[INPUT] 1    0    [1    /1   ]  0.052779             1
[INPUT] 2    0    [1    /1   ]  2.324251             1
[INPUT] 2    0    [1    /1   ]  0.656935             1
[INPUT] 2    0    [1    /1   ]  0.2072               1
[INPUT] 3    0    [1    /1   ]  1.423472             1
[INPUT] 3    0    [1    /1   ]  0.48761              1
nuclear repulsion = 0
number of shells = 13
number of NR pGTOs = 81
number of NR cGTOs = 45
basis = {'O': [[0, [57.663349, -0.002794], [35.726816, 0.023976], [22.453757, -0.115974], [14.732301, 0.288033], [9.739917, -0.274786], [5.042008, -0.083789], [2.157818, 0.063778], [1.002916, 0.410182], [0.421839, 0.504044], [0.173041, 0.172152]], [0, [1.849096, 1.0]], [0, [0.255434, 1.0]], [0, [0.141483, 1.0]], [1, [52.47406, -0.000522], [32.138432, 0.004857], [19.458579, -0.027749], [11.839344, 0.074258], [7.91003, 0.014369], [3.670858, 0.153479], [1.53966, 0.283685], [0.647119, 0.358201], [0.267853, 0.29559], [0.107198, 0.104889]], [1, [0.622175, 1.0]], [1, [0.193391, 1.0]], [1, [0.052779, 1.0]], [2, [2.324251, 1.0]], [2, [0.656935, 1.0]], [2, [0.2072, 1.0]], [3, [1.423472, 1.0]], [3, [0.48761, 1.0]]]}
ecp = {'O': [2, [[-1, [[], [[10.27717748, 6.0]], [[15.99566749, 1232.50197768], [10.46901775, -696.47008301], [14.6384801, -2654.22657081], [12.57591181, 2101.67732548]], [[7.77739102, 61.66306486]]]], [0, [[], [], [[12.39426073, -656683.37638839], [12.38126171, 657858.57667068], [8.57671033, 511.50098405], [9.89256508, -2579.54665641], [28.05641604, -57.68129584], [17.24753607, 970.30940152]], []]], [1, [[], [], [[14.78918914, -363027.24258186], [14.82014018, 361852.52314043], [22.89622221, -1300.20069256], [8.51331893, -181.96869573], [11.48609758, 2194.87589959], [27.22017524, 451.19906206]], []]]]]}
CPU time:         3.57


******** <class 'pyscf.scf.rohf.ROHF'> flags ********
method = ROHF
initial guess = minao
damping factor = 0
level shift factor = 1000.0
DIIS = <class 'pyscf.scf.diis.CDIIS'>
DIIS start cycle = 1
DIIS space = 8
SCF tol = 1e-09
SCF gradient tol = None
max. SCF cycles = 50
direct_scf = True
direct_scf_tol = 1e-13
chkfile to save SCF result = /rc_scratch/bamu3429/tmpdvT8mf
max_memory 4000 MB (current use 79 MB)
num. doubly occ = 1  num. singly occ = 3
Set gradient conv threshold to 3.16228e-05
init E= -15.1341721311697
  HOMO = 332.929598794417  LUMO = 1000.14131676479
cycle= 1 E= -15.0835704001092  delta_E= 0.0506  |g|= 0.549  |ddm|= 1.29
  HOMO = 499.006194860465  LUMO = 999.910567140153
cycle= 2 E= -15.0844411796159  delta_E= -0.000871  |g|= 0.546  |ddm|= 0.00406
  HOMO = 499.171711006309  LUMO = 999.913874967194
cycle= 3 E= -15.0851378159813  delta_E= -0.000697  |g|= 0.545  |ddm|= 0.00335
  HOMO = 499.227532538394  LUMO = 999.914883942981
cycle= 4 E= -15.0857803537336  delta_E= -0.000643  |g|= 0.543  |ddm|= 0.00323
  HOMO = 499.224217228017  LUMO = 999.91402559263
cycle= 5 E= -15.086420465233  delta_E= -0.00064  |g|= 0.541  |ddm|= 0.00322
  HOMO = 499.224699519753  LUMO = 999.912992719494
cycle= 6 E= -15.0870592960626  delta_E= -0.000639  |g|= 0.54  |ddm|= 0.00324
  HOMO = 499.206486031929  LUMO = 999.911397024503
cycle= 7 E= -15.0877113740233  delta_E= -0.000652  |g|= 0.538  |ddm|= 0.00312
  HOMO = 499.206149395702  LUMO = 999.911591747301
cycle= 8 E= -15.0883626013793  delta_E= -0.000651  |g|= 0.536  |ddm|= 0.00312
  HOMO = 499.208957142704  LUMO = 999.911077876657
cycle= 9 E= -15.0889934662169  delta_E= -0.000631  |g|= 0.535  |ddm|= 0.00305
  HOMO = 499.211849324789  LUMO = 999.910433587457
cycle= 10 E= -15.089600664905  delta_E= -0.000607  |g|= 0.533  |ddm|= 0.00297
  HOMO = 499.206753277933  LUMO = 999.911551769166
cycle= 11 E= -15.0902362709831  delta_E= -0.000636  |g|= 0.531  |ddm|= 0.00306
  HOMO = 499.21119219951  LUMO = 999.910529871934
cycle= 12 E= -15.0908367195418  delta_E= -0.0006  |g|= 0.53  |ddm|= 0.00295
  HOMO = 499.210940047808  LUMO = 999.910564375156
cycle= 13 E= -15.0914343094411  delta_E= -0.000598  |g|= 0.528  |ddm|= 0.00294
  HOMO = 499.209448150174  LUMO = 999.910803508911
cycle= 14 E= -15.0920305241764  delta_E= -0.000596  |g|= 0.527  |ddm|= 0.00293
  HOMO = 499.211167523674  LUMO = 999.911227374021
cycle= 15 E= -15.0926183178563  delta_E= -0.000588  |g|= 0.525  |ddm|= 0.0029
  HOMO = 499.211986547273  LUMO = 999.911452749213
cycle= 16 E= -15.0931997280094  delta_E= -0.000581  |g|= 0.524  |ddm|= 0.00287
  HOMO = 499.211284781331  LUMO = 999.910585393593
cycle= 17 E= -15.0937792817415  delta_E= -0.00058  |g|= 0.522  |ddm|= 0.00287
  HOMO = 499.21175298062  LUMO = 999.910401527557
cycle= 18 E= -15.0943600652684  delta_E= -0.000581  |g|= 0.52  |ddm|= 0.00289
  HOMO = 499.200343489574  LUMO = 999.910922564631
cycle= 19 E= -15.0949409402892  delta_E= -0.000581  |g|= 0.519  |ddm|= 0.00284
  HOMO = 499.198430956619  LUMO = 999.910939201991
cycle= 20 E= -15.0955251757319  delta_E= -0.000584  |g|= 0.517  |ddm|= 0.00291
  HOMO = 499.207682229777  LUMO = 999.911293639689
cycle= 21 E= -15.0961028960371  delta_E= -0.000578  |g|= 0.516  |ddm|= 0.00293
  HOMO = 499.206978208512  LUMO = 999.911257639988
cycle= 22 E= -15.0966762780813  delta_E= -0.000573  |g|= 0.514  |ddm|= 0.00289
  HOMO = 499.21041626782  LUMO = 999.9127761063
cycle= 23 E= -15.0972450879515  delta_E= -0.000569  |g|= 0.513  |ddm|= 0.00291
  HOMO = 499.21213696701  LUMO = 999.913016976876
cycle= 24 E= -15.0978065079066  delta_E= -0.000561  |g|= 0.511  |ddm|= 0.00288
  HOMO = 499.210751200319  LUMO = 999.913064608018
cycle= 25 E= -15.098368588476  delta_E= -0.000562  |g|= 0.51  |ddm|= 0.00287
  HOMO = 499.211737143259  LUMO = 999.912533053925
cycle= 26 E= -15.098926761943  delta_E= -0.000558  |g|= 0.508  |ddm|= 0.00286
  HOMO = 499.216153925168  LUMO = 999.913332499668
cycle= 27 E= -15.0994776123237  delta_E= -0.000551  |g|= 0.507  |ddm|= 0.00284
  HOMO = 499.219213994702  LUMO = 999.913355162842
cycle= 28 E= -15.1000234120146  delta_E= -0.000546  |g|= 0.505  |ddm|= 0.00283
  HOMO = 499.221416364619  LUMO = 999.913887231651
cycle= 29 E= -15.100565009115  delta_E= -0.000542  |g|= 0.504  |ddm|= 0.00282
  HOMO = 499.225961613146  LUMO = 999.913009468706
cycle= 30 E= -15.1011025811922  delta_E= -0.000538  |g|= 0.502  |ddm|= 0.0028
  HOMO = 499.221674866696  LUMO = 999.913660317689
cycle= 31 E= -15.1016355103811  delta_E= -0.000533  |g|= 0.501  |ddm|= 0.00273
  HOMO = 499.209304642319  LUMO = 999.911865697843
cycle= 32 E= -15.1021772085948  delta_E= -0.000542  |g|= 0.499  |ddm|= 0.00276
  HOMO = 499.213010395198  LUMO = 999.913706826121
cycle= 33 E= -15.1027154939861  delta_E= -0.000538  |g|= 0.498  |ddm|= 0.00278
  HOMO = 499.217188447213  LUMO = 999.915234017834
cycle= 34 E= -15.103249073259  delta_E= -0.000534  |g|= 0.497  |ddm|= 0.00278
  HOMO = 499.219888299658  LUMO = 999.914246863865
cycle= 35 E= -15.1037777841532  delta_E= -0.000529  |g|= 0.495  |ddm|= 0.00277
  HOMO = 499.207106543349  LUMO = 999.911510904838
cycle= 36 E= -15.1043067770059  delta_E= -0.000529  |g|= 0.494  |ddm|= 0.00274
  HOMO = 499.210839134696  LUMO = 999.912748592793
cycle= 37 E= -15.1048310393138  delta_E= -0.000524  |g|= 0.492  |ddm|= 0.00273
  HOMO = 499.223628752432  LUMO = 999.914176364495
cycle= 38 E= -15.1053466744948  delta_E= -0.000516  |g|= 0.491  |ddm|= 0.00273
  HOMO = 499.218133006498  LUMO = 999.913589930625
cycle= 39 E= -15.1058622678192  delta_E= -0.000516  |g|= 0.49  |ddm|= 0.00273
  HOMO = 499.2193141963  LUMO = 999.913759435738
cycle= 40 E= -15.1063729784254  delta_E= -0.000511  |g|= 0.488  |ddm|= 0.0027
  HOMO = 499.219180609492  LUMO = 999.913815597673
cycle= 41 E= -15.1068807487465  delta_E= -0.000508  |g|= 0.487  |ddm|= 0.00269
  HOMO = 499.224762558409  LUMO = 999.915183459816
cycle= 42 E= -15.1073826711998  delta_E= -0.000502  |g|= 0.485  |ddm|= 0.00267
  HOMO = 499.220460678502  LUMO = 999.913709055244
cycle= 43 E= -15.1078852491152  delta_E= -0.000503  |g|= 0.484  |ddm|= 0.00267
  HOMO = 499.222806516291  LUMO = 999.913935931048
cycle= 44 E= -15.1083816709067  delta_E= -0.000496  |g|= 0.483  |ddm|= 0.00264
  HOMO = 499.230206978313  LUMO = 999.914178234317
cycle= 45 E= -15.108869799537  delta_E= -0.000488  |g|= 0.481  |ddm|= 0.00263
  HOMO = 499.225488003972  LUMO = 999.914744978756
cycle= 46 E= -15.1093598023254  delta_E= -0.00049  |g|= 0.48  |ddm|= 0.00262
  HOMO = 499.226587356572  LUMO = 999.915138139667
cycle= 47 E= -15.1098448783075  delta_E= -0.000485  |g|= 0.479  |ddm|= 0.0026
  HOMO = 499.225017730955  LUMO = 999.914911653915
cycle= 48 E= -15.1103282968382  delta_E= -0.000483  |g|= 0.478  |ddm|= 0.00259
  HOMO = 499.22479156345  LUMO = 999.914912456312
cycle= 49 E= -15.1108090094352  delta_E= -0.000481  |g|= 0.476  |ddm|= 0.00258
  HOMO = 499.224983502672  LUMO = 999.914984886572
cycle= 50 E= -15.1112863515178  delta_E= -0.000477  |g|= 0.475  |ddm|= 0.00256
  HOMO = -1.01291691601471  LUMO = -0.0733181811359007
Extra cycle  E= -15.204914723884  delta_E= -0.0936  |g|= 0.141  |ddm|= 0.965
SCF not converged.
SCF energy = -15.204914723884 after 50 cycles
**** MO energy ****
                Roothaan           | alpha              | beta
MO #1   energy= -1.95256816397979  | -2.2042396925846   | -1.70089663826211  occ= 2
MO #2   energy= -1.01292891396866  | -1.44289414892752  | -0.505272452332002 occ= 1
MO #3   energy= -1.01292793705009  | -1.44288773952172  | -0.505274415750872 occ= 1
MO #4   energy= -1.01291691601471  | -1.44281641107452  | -0.505296618181657 occ= 1
MO #5   energy= -0.0733181811359007 | -0.0922071383884309 | -0.0815652368834592 occ= 0
MO #6   energy= -0.0733178878414142 | -0.0922068653990364 | -0.0815649312307321 occ= 0
MO #7   energy= -0.073315662560621 | -0.0922033487697073 | -0.0815612285848152 occ= 0
MO #8   energy= -0.0566696399969838 | -0.0788296087439278 | -0.0345096712136842 occ= 0
MO #9   energy= 0.264109178997671  | 0.239393435121397  | 0.288824922893897  occ= 0
MO #10  energy= 0.26410918176212   | 0.239393434647422  | 0.288824928875878  occ= 0
MO #11  energy= 0.26411045164255   | 0.23939246524936   | 0.288828438040771  occ= 0
MO #12  energy= 0.264110563433103  | 0.239392375004171  | 0.288828751886432  occ= 0
MO #13  energy= 0.264110952051533  | 0.239392080814918  | 0.288829823290355  occ= 0
MO #14  energy= 0.39513223238264   | 0.336395427594104  | 0.407871125811496  occ= 0
MO #15  energy= 0.395133663687775  | 0.336396557792551  | 0.407872101798976  occ= 0
MO #16  energy= 0.395150352346707  | 0.336409116123242  | 0.407882923283379  occ= 0
MO #17  energy= 1.28922374150235   | 1.23068221082865   | 1.3477652723289    occ= 0
MO #18  energy= 1.52114089886789   | 1.49940885172147   | 1.5428729460144    occ= 0
MO #19  energy= 1.52114089898102   | 1.49940885177323   | 1.54287294618892   occ= 0
MO #20  energy= 1.52114363266382   | 1.49940983138491   | 1.542877433943     occ= 0
MO #21  energy= 1.52114364734347   | 1.49940983696177   | 1.54287745772516   occ= 0
MO #22  energy= 1.5211451565692    | 1.49941037822708   | 1.54287993492048   occ= 0
MO #23  energy= 1.52114543771562   | 1.49941047825723   | 1.54288039718251   occ= 0
MO #24  energy= 1.52114585940883   | 1.49941062978998   | 1.54288108904072   occ= 0
MO #25  energy= 1.54396448476142   | 1.46658890116368   | 1.62134006839946   occ= 0
MO #26  energy= 1.5439645161424    | 1.46659000279282   | 1.62133902993272   occ= 0
MO #27  energy= 1.54396453532494   | 1.46659033627566   | 1.62133873437965   occ= 0
MO #28  energy= 1.54396464893329   | 1.46659406115421   | 1.62133523698161   occ= 0
MO #29  energy= 1.54396465511715   | 1.46659407315148   | 1.62133523707775   occ= 0
MO #30  energy= 2.85426044948962   | 2.76962352974497   | 2.93434009253934   occ= 0
MO #31  energy= 2.85426289072266   | 2.76962682012914   | 2.93433990446668   occ= 0
MO #32  energy= 2.85429020999669   | 2.76966369014495   | 2.93433784556422   occ= 0
MO #33  energy= 5.6378943197376    | 5.58491939453959   | 5.69086924493558   occ= 0
MO #34  energy= 5.63789431975459   | 5.58491939464447   | 5.6908692448647    occ= 0
MO #35  energy= 5.63789467443383   | 5.58491936570608   | 5.69086998316152   occ= 0
MO #36  energy= 5.63789467611822   | 5.58491936830875   | 5.69086998392769   occ= 0
MO #37  energy= 5.63789487401079   | 5.58491935856931   | 5.69087038945056   occ= 0
MO #38  energy= 5.63789490596598   | 5.58491934436253   | 5.6908704675678    occ= 0
MO #39  energy= 5.63789496256944   | 5.58491934582247   | 5.69087057931397   occ= 0
MO #40  energy= 6.08732322641166   | 5.99698473937928   | 6.17766171416641   occ= 0
MO #41  energy= 6.08732323163032   | 5.99698476718366   | 6.1776616961688    occ= 0
MO #42  energy= 6.08732465580704   | 5.99699564663404   | 6.17765366495256   occ= 0
MO #43  energy= 6.08732477399378   | 5.99699659866795   | 6.17765295037244   occ= 0
MO #44  energy= 6.0873252136636    | 5.99699993357498   | 6.1776504938743    occ= 0
MO #45  energy= 10.9959029547381   | 10.9309255616356   | 11.060880347911    occ= 0
 ** Mulliken pop on meta-lowdin orthogonal AOs  **
 ** Mulliken pop  **
pop of  0O 2s        1.99179
pop of  0O 3s        0.00199
pop of  0O 4s        0.00220
pop of  0O 5s        0.00402
pop of  0O 2px       0.96505
pop of  0O 2py       0.96507
pop of  0O 2pz       0.96505
pop of  0O 3px       0.00013
pop of  0O 3py       0.00013
pop of  0O 3pz       0.00013
pop of  0O 4px       0.02575
pop of  0O 4py       0.02574
pop of  0O 4pz       0.02575
pop of  0O 5px       0.00907
pop of  0O 5py       0.00906
pop of  0O 5pz       0.00907
pop of  0O 3dxy      0.00000
pop of  0O 3dyz      0.00000
pop of  0O 3dz^2     0.00000
pop of  0O 3dxz      0.00000
pop of  0O 3dx2-y2    0.00000
pop of  0O 4dxy      0.00000
pop of  0O 4dyz      0.00000
pop of  0O 4dz^2     0.00000
pop of  0O 4dxz      0.00000
pop of  0O 4dx2-y2    0.00000
pop of  0O 5dxy      0.00000
pop of  0O 5dyz      0.00000
pop of  0O 5dz^2     0.00000
pop of  0O 5dxz      0.00000
pop of  0O 5dx2-y2    0.00000
pop of  0O 4fy^3     0.00000
pop of  0O 4fxyz     0.00000
pop of  0O 4fyz^2    0.00000
pop of  0O 4fz^3     0.00000
pop of  0O 4fxz^2    0.00000
pop of  0O 4fzx^2    0.00000
pop of  0O 4fx^3     0.00000
pop of  0O 5fy^3     0.00000
pop of  0O 5fxyz     0.00000
pop of  0O 5fyz^2    0.00000
pop of  0O 5fz^3     0.00000
pop of  0O 5fxz^2    0.00000
pop of  0O 5fzx^2    0.00000
pop of  0O 5fx^3     0.00000
 ** Mulliken atomic charges  **
charge of  0O =      1.00000

******** <class 'pyscf.mcscf.mc1step.CASSCF'> flags ********
CAS (3e+0e, 3o), ncore = 1, nvir = 41
max_cycle_macro = 50
max_cycle_micro = 4
conv_tol = 1e-07
conv_tol_grad = None
orbital rotation max_stepsize = 0.02
augmented hessian ah_max_cycle = 30
augmented hessian ah_conv_tol = 1e-12
augmented hessian ah_linear dependence = 1e-14
augmented hessian ah_level shift = 0
augmented hessian ah_start_tol = 2.5
augmented hessian ah_start_cycle = 3
augmented hessian ah_grad_trust_region = 3
kf_trust_region = 3
kf_interval = 4
ci_response_space = 4
ci_grad_trust_region = 3
with_dep4 0
natorb = False
canonicalization = True
sorting_mo_energy = False
chkfile = ./scratch/163506/tmpGlzcpf
max_memory 4000 MB (current use 235 MB)
internal_rotation = False

******** SHCI flags ********
executable             = /home/bamu3429/softwares/dice/Dice
mpiprefix              = srun -n20
scratchDirectory       = ./scratch/163506
integralFile           = ./FCIDUMP
configFile             = ./input.dat
outputFile             = ./output.dat
maxIter                = 6
sweep_iter             = []
sweep_epsilon          = []
nPTiter                = 0
Stochastic             = True
fullrestart            = False
restart                = False
num_thrds              = 12
memory                 = None

CASCI E = -15.2049147238844  S^2 = 3.7500000
Set conv_tol_grad to 0.000316228
macro iter 1 (7 JK  3 micro), CASSCF E = -15.2101201083091  dE = -0.0052053844  S^2 = 3.7500000
               |grad[o]|=0.141  |grad[c]|= None  |ddm|=    0
macro iter 2 (3 JK  1 micro), CASSCF E = -15.2101203746745  dE = -2.6636536e-07  S^2 = 3.7500000
               |grad[o]|=0.000793  |grad[c]|= None  |ddm|=    0
macro iter 3 (1 JK  1 micro), CASSCF E = -15.2101203746745  dE = 0  S^2 = 3.7500000
               |grad[o]|=2.84e-06  |grad[c]|= None  |ddm|=    0
1-step CASSCF converged in 3 macro (11 JK 5 micro) steps
CASSCF canonicalization
CASSCF energy = -15.2101203746745


--------------------------------------------------
                 ICMPSPT CALCULATION              
--------------------------------------------------

Perturbation type: MRLCC
With fully internally contracted scheme
With third order correction

Preparing necessary RDMs
......production of RDMs took       1.92 sec
Reading binary 4RDM from DICE
......reading the RDM took          0.01 sec

(GOOD) Trace 4RDM:      0.0 =    3*    2*    1*    0
(BAD)  Trace 3RDM:      nan!=    3*    2*    1
(BAD)  Trace 2RDM:      nan!=    3*    2
(BAD)  Trace 1RDM:      nan!=    3

Producing the integrals
......production of INT took       1.12 sec

Energy_core =   -8.90650945
Energy      =           nan

WARNING: Have to use natural orbitals from CAASCF
         offdiagonal elements:    0.44822969

Basic ingredients written to int/
......savings of INGREDIENTS took       0.64 sec

Second-order:
