 &FCI NORB=6 ,NELEC=8 ,MS2=4,
  ORBSYM=1,1,1,1,1,1,
  ISYM=1,
 &END
  8.877757939198e-01    1  1  1  1
  1.005827598989e-05    2  1  1  1
  7.740220970672e-03    2  1  2  1
  3.596203294660e-01    2  2  1  1
 -2.068470807523e-08    2  2  2  1
  2.810059099121e-01    2  2  2  2
 -7.989403673811e-07    3  1  1  1
 -1.449518347130e-03    3  1  2  1
 -1.209843668450e-07    3  1  2  2
  4.008493246125e-02    3  1  3  1
  1.544823455447e-03    3  2  1  1
 -8.182601402449e-08    3  2  2  1
  1.079453369728e-03    3  2  2  2
 -1.995621461819e-06    3  2  3  1
  6.944943974257e-03    3  2  3  2
  8.284254490203e-01    3  3  1  1
  1.896556936531e-06    3  3  2  1
  3.620945428621e-01    3  3  2  2
 -1.103645749857e-06    3  3  3  1
  4.213024733182e-03    3  3  3  2
  9.349013758426e-01    3  3  3  3
 -2.297992826646e-10    4  1  1  1
 -2.008918262720e-09    4  1  2  1
 -7.552999619106e-11    4  1  2  2
 -4.568641315163e-11    4  1  3  1
  6.948156428214e-10    4  1  3  2
  1.683481125847e-10    4  1  3  3
  3.519610477641e-02    4  1  4  1
 -3.442362309842e-08    4  2  1  1
  6.518622871447e-11    4  2  2  1
 -6.326355151303e-09    4  2  2  2
 -1.272567295097e-09    4  2  3  1
 -1.861660004612e-10    4  2  3  2
 -3.737220465868e-08    4  2  3  3
 -1.001402326393e-03    4  2  4  1
  6.918739999291e-03    4  2  4  2
  1.261973711614e-10    4  3  1  1
  6.894710959202e-10    4  3  2  1
  1.390872052543e-10    4  3  2  2
 -1.921430665569e-10    4  3  3  1
 -1.398875575305e-09    4  3  3  2
  7.187472113530e-10    4  3  3  3
 -9.437064885956e-03    4  3  4  1
  5.139937653226e-04    4  3  4  2
  2.584321964364e-02    4  3  4  3
  8.382563107160e-01    4  4  1  1
 -1.072321509120e-03    4  4  2  1
  3.618583663689e-01    4  4  2  2
  1.822730238565e-02    4  4  3  1
  3.622481758386e-03    4  4  3  2
  8.817680099526e-01    4  4  3  3
 -6.296233072413e-10    4  4  4  1
 -3.999303072053e-08    4  4  4  2
  7.930129328001e-10    4  4  4  3
  9.313392432746e-01    4  4  4  4
 -3.523049677280e-10    5  1  1  1
  3.036254161583e-09    5  1  2  1
 -1.146879484763e-10    5  1  2  2
  7.141036220249e-11    5  1  3  1
  1.052657467038e-09    5  1  3  2
  2.423781780969e-10    5  1  3  3
 -6.706688999223e-11    5  1  4  1
  4.966993781762e-09    5  1  4  2
  4.543354935381e-08    5  1  4  3
 -1.404795847856e-10    5  1  4  4
  3.516985746716e-02    5  1  5  1
  5.209580985433e-08    5  2  1  1
  9.975818305711e-11    5  2  2  1
  9.571536878877e-09    5  2  2  2
 -1.929714678645e-09    5  2  3  1
  2.816685855231e-10    5  2  3  2
  5.654683560788e-08    5  2  3  3
  4.677592953697e-09    5  2  4  1
  2.194535267045e-12    5  2  4  2
  8.783203520554e-11    5  2  4  3
  5.412637988171e-08    5  2  4  4
  1.001472927914e-03    5  2  5  1
  6.918769382817e-03    5  2  5  2
 -1.953860080315e-10    5  3  1  1
  1.044558876374e-09    5  3  2  1
 -2.107156269331e-10    5  3  2  2
 -2.850243805017e-10    5  3  3  1
  2.119977291705e-09    5  3  3  2
 -1.086850815829e-09    5  3  3  3
  4.553249609431e-08    5  3  4  1
  8.805573318590e-11    5  3  4  2
  7.713860634793e-12    5  3  4  3
 -1.261581898600e-09    5  3  4  4
  9.453473445245e-03    5  3  5  1
  5.155729263488e-04    5  3  5  2
  2.587205694010e-02    5  3  5  3
  5.601614838631e-11    5  4  1  1
  5.185623686759e-09    5  4  2  1
 -3.066690597150e-11    5  4  2  2
 -8.784885540984e-08    5  4  3  1
 -1.692601735743e-10    5  4  3  2
 -1.049619849952e-10    5  4  3  3
  1.815192379386e-10    5  4  4  1
  3.289993918897e-09    5  4  4  2
  4.862214106652e-11    5  4  4  3
  1.570022567101e-09    5  4  4  4
  1.213227024419e-10    5  4  5  1
 -2.174137366477e-09    5  4  5  2
 -3.448727833689e-11    5  4  5  3
  3.657589360408e-02    5  4  5  4
  8.383075093686e-01    5  5  1  1
  1.081377710151e-03    5  5  2  1
  3.618573211871e-01    5  5  2  2
 -1.825910431527e-02    5  5  3  1
  3.622776045118e-03    5  5  3  2
  8.817073084171e-01    5  5  3  3
 -9.351690817913e-11    5  5  4  1
 -3.576860716401e-08    5  5  4  2
  8.392425317312e-10    5  5  4  3
  8.588724505336e-01    5  5  4  4
 -9.554109714227e-10    5  5  5  1
  6.051883604290e-08    5  5  5  2
 -1.199752817488e-09    5  5  5  3
 -1.756519367395e-09    5  5  5  4
  9.313276133931e-01    5  5  5  5
  1.102856328688e-10    6  1  2  1
  9.060296550866e-11    6  1  3  1
 -3.015328426211e-10    6  1  4  1
  1.172432956904e-11    6  1  4  2
  1.695594648135e-10    6  1  4  3
  1.459123074671e-10    6  1  4  4
  2.015011559051e-10    6  1  5  1
  5.861261764434e-12    6  1  5  2
  1.135836769844e-10    6  1  5  3
  1.430670279937e-05    6  1  5  4
 -1.459350440152e-10    6  1  5  5
  1.930729116847e-02    6  1  6  1
  4.703951389391e-09    6  2  1  1
  8.098619438823e-10    6  2  2  2
  1.976680468152e-11    6  2  3  2
  4.508127959318e-09    6  2  3  3
 -1.721948511999e-09    6  2  4  1
  5.545774498770e-11    6  2  4  2
  1.029977674805e-09    6  2  4  3
  7.732758136473e-09    6  2  4  4
 -1.136790820391e-09    6  2  5  1
 -3.672436825539e-11    6  2  5  2
 -6.824474812439e-10    6  2  5  3
  6.517496107248e-04    6  2  5  4
  1.455786952505e-09    6  2  5  5
  9.223190372466e-07    6  2  6  1
  6.872347422717e-03    6  2  6  2
 -7.340258888078e-11    6  3  1  1
  2.606041603966e-11    6  3  2  2
  3.319106010331e-10    6  3  3  2
  3.154434599858e-11    6  3  3  3
 -3.060371015331e-10    6  3  4  1
 -2.012490149315e-09    6  3  4  2
 -3.085706210103e-11    6  3  4  3
 -8.996623893177e-08    6  3  4  4
 -2.063872339618e-10    6  3  5  1
  1.329751729805e-09    6  3  5  2
  2.133977546084e-11    6  3  5  3
 -1.870408423167e-02    6  3  5  4
  9.016986714223e-08    6  3  5  5
 -1.636238385037e-05    6  3  6  1
 -7.176359545039e-04    6  3  6  2
  4.152357654929e-02    6  3  6  3
 -8.649298160174e-11    6  4  1  1
  1.728118318853e-09    6  4  2  1
 -1.776932326508e-10    6  4  2  2
  1.477453072404e-10    6  4  3  1
  1.033536156705e-09    6  4  3  2
 -6.744591921408e-10    6  4  3  3
 -4.403826656509e-11    6  4  4  1
  4.272470643090e-09    6  4  4  2
  4.601963895716e-08    6  4  4  3
 -7.283353806518e-10    6  4  4  4
  1.605818686718e-02    6  4  5  1
  8.295160059330e-04    6  4  5  2
  9.577680864725e-03    6  4  5  3
  4.441001171806e-11    6  4  5  4
 -1.606921397282e-09    6  4  5  5
  1.871028224349e-10    6  4  6  1
 -2.147434653446e-09    6  4  6  2
 -9.908343574212e-11    6  4  6  3
  3.636218302583e-02    6  4  6  4
  5.202235026264e-11    6  5  1  1
  1.143057092444e-09    6  5  2  1
  1.172902679933e-10    6  5  2  2
  1.003243521051e-10    6  5  3  1
 -6.813425104747e-10    6  5  3  2
  4.430686838191e-10    6  5  3  3
 -1.607145632193e-02    6  5  4  1
  8.289403773571e-04    6  5  4  2
  9.553102098864e-03    6  5  4  3
  1.067928694299e-09    6  5  4  4
  4.410962224665e-11    6  5  5  1
 -3.713707561665e-09    6  5  5  2
 -4.610318126780e-08    6  5  5  3
 -7.209093010124e-11    6  5  5  4
  4.805900979930e-10    6  5  5  5
  2.794821161191e-10    6  5  6  1
  3.249542577092e-09    6  5  6  2
  1.513481308195e-10    6  5  6  3
  2.242283644339e-11    6  5  6  4
  3.636185566414e-02    6  5  6  5
  8.667591741608e-01    6  6  1  1
  6.814497171005e-06    6  6  2  1
  3.610974579321e-01    6  6  2  2
  3.227190659478e-05    6  6  3  1
  2.069232840106e-03    6  6  3  2
  8.449223280640e-01    6  6  3  3
 -6.123574394627e-10    6  6  4  1
 -3.551829621365e-08    6  6  4  2
  3.963854414715e-10    6  6  4  3
  8.549612557286e-01    6  6  4  4
 -9.238073563368e-10    6  6  5  1
  5.374695999457e-08    6  6  5  2
 -6.023012147930e-10    6  6  5  3
 -2.345600430768e-10    6  6  5  4
  8.549552307108e-01    6  6  5  5
  5.106055499606e-09    6  6  6  2
  9.785284968795e-11    6  6  6  3
 -7.275922885693e-10    6  6  6  4
  4.801378675660e-10    6  6  6  5
  9.237131034598e-01    6  6  6  6
 -5.450353173489e+00    1  1  0  0
 -2.835656257699e-05    2  1  0  0
 -2.687453915293e+00    2  2  0  0
  8.731094328936e-07    3  1  0  0
 -1.914754191501e-02    3  2  0  0
 -5.552928883389e+00    3  3  0  0
  1.278595263396e-09    4  1  0  0
  2.040795604385e-07    4  2  0  0
 -2.991320766105e-09    4  3  0  0
 -5.547770197211e+00    4  4  0  0
  1.950739229039e-09    5  1  0  0
 -3.088156486099e-07    5  2  0  0
  4.524206416371e-09    5  3  0  0
  4.353232697829e-10    5  4  0  0
 -5.547748023619e+00    5  5  0  0
 -2.623082856703e-08    6  2  0  0
 -1.933678626270e-10    6  3  0  0
  3.497723122432e-09    6  4  0  0
 -2.308313524364e-09    6  5  0  0
 -5.531343671128e+00    6  6  0  0
   -101.629859036835   0  0  0  0
