#INFO: **** input file is /projects/bamu3429/BENCHMARK/fresh_atoms/MRPT/vqz/atoms/Fe_0/mrpt.py ****
import json
from pyscf import gto,scf,mcscf, fci, lo, ci, cc
from pyscf.scf import ROHF, UHF,ROKS
import numpy as np
import pandas as pd

# THIS IS WERE IT STARTS ====================================

df=json.load(open("../../../trail.json"))

spins={'Sc':1, 'Ti':2, 'V':3, 'Cr':6, 'Mn':5, 'Fe':4, 'Cu':1}

nd={'Sc':(1,0), 'Ti':(2,0), 'V':(3,0), 'Cr':(5,0), 'Mn':(5,0), 'Fe':(5,1), 'Cu':(5,5)}

cas={'Sc':3, 'Ti':4, 'V':5, 'Cr':6, 'Mn':7, 'Fe':8, 'Cu':11}

datacsv={}
for nm in ['atom','charge','method','basis','pseudopotential','hf',
           'totalenergy','totalenergy-stocherr','totalenergy-syserr']:
  datacsv[nm]=[]

basis='vqz'
el='Fe'
charge=0

mol=gto.Mole()
mol.ecp={}
mol.basis={}
mol.ecp[el]=gto.basis.parse_ecp(df[el]['ecp'])
mol.basis[el]=gto.basis.parse(df[el][basis])
mol.charge=charge
if el == 'Cr' or el == 'Cu':
  mol.spin=spins[el]-charge
else:
  mol.spin=spins[el]+charge
mol.build(atom="%s 0. 0. 0."%el,verbose=4)

m=ROHF(mol)
m.level_shift=1000.0
dm=m.from_chk("../../../../HF/atoms/"+el+basis+str(charge)+".chk")
hf=m.kernel(dm)
m.analyze()

from pyscf.shciscf import shci
mc = shci.SHCISCF(m, 6, cas[el]-charge)
#mc.fcisolver.conv_tol = 1e-14
mc.fcisolver.mpiprefix="srun -n20"
mc.fcisolver.num_thrds=12
mc.verbose = 4
cas=mc.kernel()[0]
 
from pyscf.icmpspt import icmpspt
pt=icmpspt.icmpspt(mc,rdmM=500, PTM=1000,\
                          pttype="MRLCC",\
                          third_order=True,\
                          fully_ic=True,\
                          do_dm4=True)

datacsv['atom'].append(el)
datacsv['charge'].append(charge)
datacsv['method'].append('MRPT')
datacsv['basis'].append(basis)
datacsv['pseudopotential'].append('trail')
datacsv['hf'].append(hf)
datacsv['totalenergy'].append(cas+pt)
datacsv['totalenergy-stocherr'].append(0.0)
datacsv['totalenergy-syserr'].append(0.0)
pd.DataFrame(datacsv).to_csv(el+".csv",index=False)

#INFO: ******************** input file end ********************


System: ('Linux', 'bnode0302.rc.int.colorado.edu', '3.10.0-514.41.1.el7.x86_64', '#1 SMP Wed Jan 17 10:26:16 EST 2018', 'x86_64', 'x86_64')  Threads 28
Python 2.7.11 (default, Mar 22 2016, 01:42:54) 
[GCC Intel(R) C++ gcc 4.8 mode]
numpy 1.11.1  scipy 0.17.1
Date: Thu Apr 19 10:46:36 2018
PySCF version 1.4.6
PySCF path  /projects/bamu3429/softwares/pyscf_uptodate/pyscf
GIT ORIG_HEAD f3591ef22170896a4cdc2aadaa6f5da388ffcadb
GIT HEAD      ref: refs/heads/master
GIT master branch  1847583fb1d2472321833d3c71c8b7008e5fabf5

[INPUT] VERBOSE 4
[INPUT] num atoms = 1
[INPUT] num electrons = 16
[INPUT] charge = 0
[INPUT] spin (= nelec alpha-beta = 2S) = 4
[INPUT] symmetry False subgroup None
[INPUT]  1 Fe     0.000000000000   0.000000000000   0.000000000000 AA    0.000000000000   0.000000000000   0.000000000000 Bohr
[INPUT] ---------------- BASIS SET ---------------- 
[INPUT] l, kappa, [nprim/nctr], expnt,             c_1 c_2 ...
[INPUT] Fe
[INPUT] 0    0    [12   /1   ]  41.79315189       0.013363
                                21.4479766        -0.225831
                                13.50597996       1.092302
                                9.47978339        -1.379238
                                4.48116767        0.183004
                                2.00533715        0.377557
                                1.21557711        0.591529
                                0.52042955        0.236703
                                0.24120153        -0.029854
                                0.11142434        0.02048
                                0.05213724        -0.006828
                                0.02419858        0.002604
[INPUT] 0    0    [12   /1   ]  41.79315189       -0.002034
                                21.4479766        0.04181
                                13.50597996       -0.22265
                                9.47978339        0.296462
                                4.48116767        -0.039261
                                2.00533715        -0.090727
                                1.21557711        -0.230375
                                0.52042955        -0.197211
                                0.24120153        0.111234
                                0.11142434        0.439139
                                0.05213724        0.516418
                                0.02419858        0.126845
[INPUT] 0    0    [12   /1   ]  41.79315189       -0.004837
                                21.4479766        0.142209
                                13.50597996       -0.903454
                                9.47978339        1.370339
                                4.48116767        -0.409377
                                2.00533715        -1.287567
                                1.21557711        0.205595
                                0.52042955        0.603911
                                0.24120153        0.738131
                                0.11142434        0.144644
                                0.05213724        -0.563073
                                0.02419858        -0.31909
[INPUT] 0    0    [12   /1   ]  41.79315189       -0.003884
                                21.4479766        0.166254
                                13.50597996       -1.213665
                                9.47978339        2.033455
                                4.48116767        -1.02974
                                2.00533715        -2.334822
                                1.21557711        2.086971
                                0.52042955        1.379229
                                0.24120153        -1.184835
                                0.11142434        -0.997257
                                0.05213724        0.546401
                                0.02419858        0.59844
[INPUT] 0    0    [12   /1   ]  41.79315189       -0.002831
                                21.4479766        -0.1658
                                13.50597996       1.74845
                                9.47978339        -3.545105
                                4.48116767        3.817957
                                2.00533715        0.21218
                                1.21557711        -4.041249
                                0.52042955        2.619566
                                0.24120153        1.026746
                                0.11142434        -2.118211
                                0.05213724        0.042195
                                0.02419858        0.853187
[INPUT] 0    0    [1    /1   ]  0.02419858           1
[INPUT] 0    0    [1    /1   ]  0.01123134           1
[INPUT] 1    0    [12   /1   ]  66.19105244       0.00032
                                34.58074578       -0.003142
                                17.77781378       0.029707
                                9.38371315        -0.152873
                                5.85185491        0.094627
                                3.39352009        0.227547
                                1.80084269        0.448024
                                0.88349057        0.318306
                                0.45376195        0.097682
                                0.18864625        0.012314
                                0.07756623        -0.001004
                                0.03189313        0.000474
[INPUT] 1    0    [12   /1   ]  66.19105244       -1.8e-05
                                34.58074578       0.000416
                                17.77781378       -0.005911
                                9.38371315        0.03555
                                5.85185491        -0.025962
                                3.39352009        -0.059781
                                1.80084269        -0.122371
                                0.88349057        -0.102075
                                0.45376195        0.039881
                                0.18864625        0.346137
                                0.07756623        0.528115
                                0.03189313        0.237416
[INPUT] 1    0    [12   /1   ]  66.19105244       -0.000757
                                34.58074578       0.002198
                                17.77781378       0.018471
                                9.38371315        -0.223198
                                5.85185491        0.199379
                                3.39352009        0.827171
                                1.80084269        0.013075
                                0.88349057        -0.896886
                                0.45376195        -0.312811
                                0.18864625        0.644499
                                0.07756623        0.378067
                                0.03189313        0.003975
[INPUT] 1    0    [12   /1   ]  66.19105244       -0.001362
                                34.58074578       0.004899
                                17.77781378       0.030086
                                9.38371315        -0.547347
                                5.85185491        1.144321
                                3.39352009        0.837657
                                1.80084269        -1.666445
                                0.88349057        -0.541803
                                0.45376195        1.568452
                                0.18864625        -0.154076
                                0.07756623        -0.636056
                                0.03189313        0.003625
[INPUT] 1    0    [12   /1   ]  66.19105244       -0.007466
                                34.58074578       0.041225
                                17.77781378       -0.113823
                                9.38371315        -0.593972
                                5.85185491        3.090393
                                3.39352009        -2.298941
                                1.80084269        -1.325372
                                0.88349057        2.843762
                                0.45376195        -1.264441
                                0.18864625        -0.765375
                                0.07756623        0.899235
                                0.03189313        -0.013792
[INPUT] 1    0    [1    /1   ]  0.03189313           1
[INPUT] 1    0    [1    /1   ]  0.01311358           1
[INPUT] 2    0    [10   /1   ]  58.21685909       0.000311
                                24.96806153       -0.010386
                                12.44413704       0.126915
                                5.48395408        0.166806
                                2.79137309        0.262721
                                1.34407118        0.316542
                                0.61230651        0.280074
                                0.27095461        0.158069
                                0.12811374        0.049028
                                0.05904405        0.008369
[INPUT] 2    0    [10   /1   ]  58.21685909       0.000385
                                24.96806153       0.007345
                                12.44413704       -0.129376
                                5.48395408        -0.235095
                                2.79137309        -0.387916
                                1.34407118        -0.056421
                                0.61230651        0.34416
                                0.27095461        0.401431
                                0.12811374        0.201425
                                0.05904405        0.045061
[INPUT] 2    0    [10   /1   ]  58.21685909       -0.002018
                                24.96806153       0.001015
                                12.44413704       0.127448
                                5.48395408        0.457991
                                2.79137309        0.230218
                                1.34407118        -0.694956
                                0.61230651        -0.373723
                                0.27095461        0.35233
                                0.12811374        0.420337
                                0.05904405        0.109669
[INPUT] 2    0    [10   /1   ]  58.21685909       -5.7e-05
                                24.96806153       -0.016008
                                12.44413704       0.319947
                                5.48395408        0.834009
                                2.79137309        -1.01955
                                1.34407118        -0.489125
                                0.61230651        0.956701
                                0.27095461        0.060729
                                0.12811374        -0.501922
                                0.05904405        -0.152504
[INPUT] 2    0    [1    /1   ]  0.05904405           1
[INPUT] 2    0    [1    /1   ]  0.02721175           1
[INPUT] 3    0    [1    /1   ]  4.808419             1
[INPUT] 3    0    [1    /1   ]  1.639843             1
[INPUT] 3    0    [1    /1   ]  0.559243             1
[INPUT] 3    0    [1    /1   ]  0.19072114           1
[INPUT] 4    0    [1    /1   ]  4.604195             1
[INPUT] 4    0    [1    /1   ]  1.569312             1
[INPUT] 4    0    [1    /1   ]  0.53489048           1
[INPUT] 5    0    [1    /1   ]  3.877747             1
[INPUT] 5    0    [1    /1   ]  1.32170656           1
nuclear repulsion = 0
number of shells = 29
number of NR pGTOs = 535
number of NR cGTOs = 135
basis = {'Fe': [[0, [41.79315189, 0.013363], [21.4479766, -0.225831], [13.50597996, 1.092302], [9.47978339, -1.379238], [4.48116767, 0.183004], [2.00533715, 0.377557], [1.21557711, 0.591529], [0.52042955, 0.236703], [0.24120153, -0.029854], [0.11142434, 0.02048], [0.05213724, -0.006828], [0.02419858, 0.002604]], [0, [41.79315189, -0.002034], [21.4479766, 0.04181], [13.50597996, -0.22265], [9.47978339, 0.296462], [4.48116767, -0.039261], [2.00533715, -0.090727], [1.21557711, -0.230375], [0.52042955, -0.197211], [0.24120153, 0.111234], [0.11142434, 0.439139], [0.05213724, 0.516418], [0.02419858, 0.126845]], [0, [41.79315189, -0.004837], [21.4479766, 0.142209], [13.50597996, -0.903454], [9.47978339, 1.370339], [4.48116767, -0.409377], [2.00533715, -1.287567], [1.21557711, 0.205595], [0.52042955, 0.603911], [0.24120153, 0.738131], [0.11142434, 0.144644], [0.05213724, -0.563073], [0.02419858, -0.31909]], [0, [41.79315189, -0.003884], [21.4479766, 0.166254], [13.50597996, -1.213665], [9.47978339, 2.033455], [4.48116767, -1.02974], [2.00533715, -2.334822], [1.21557711, 2.086971], [0.52042955, 1.379229], [0.24120153, -1.184835], [0.11142434, -0.997257], [0.05213724, 0.546401], [0.02419858, 0.59844]], [0, [41.79315189, -0.002831], [21.4479766, -0.1658], [13.50597996, 1.74845], [9.47978339, -3.545105], [4.48116767, 3.817957], [2.00533715, 0.21218], [1.21557711, -4.041249], [0.52042955, 2.619566], [0.24120153, 1.026746], [0.11142434, -2.118211], [0.05213724, 0.042195], [0.02419858, 0.853187]], [0, [0.02419858, 1.0]], [0, [0.01123134, 1.0]], [1, [66.19105244, 0.00032], [34.58074578, -0.003142], [17.77781378, 0.029707], [9.38371315, -0.152873], [5.85185491, 0.094627], [3.39352009, 0.227547], [1.80084269, 0.448024], [0.88349057, 0.318306], [0.45376195, 0.097682], [0.18864625, 0.012314], [0.07756623, -0.001004], [0.03189313, 0.000474]], [1, [66.19105244, -1.8e-05], [34.58074578, 0.000416], [17.77781378, -0.005911], [9.38371315, 0.03555], [5.85185491, -0.025962], [3.39352009, -0.059781], [1.80084269, -0.122371], [0.88349057, -0.102075], [0.45376195, 0.039881], [0.18864625, 0.346137], [0.07756623, 0.528115], [0.03189313, 0.237416]], [1, [66.19105244, -0.000757], [34.58074578, 0.002198], [17.77781378, 0.018471], [9.38371315, -0.223198], [5.85185491, 0.199379], [3.39352009, 0.827171], [1.80084269, 0.013075], [0.88349057, -0.896886], [0.45376195, -0.312811], [0.18864625, 0.644499], [0.07756623, 0.378067], [0.03189313, 0.003975]], [1, [66.19105244, -0.001362], [34.58074578, 0.004899], [17.77781378, 0.030086], [9.38371315, -0.547347], [5.85185491, 1.144321], [3.39352009, 0.837657], [1.80084269, -1.666445], [0.88349057, -0.541803], [0.45376195, 1.568452], [0.18864625, -0.154076], [0.07756623, -0.636056], [0.03189313, 0.003625]], [1, [66.19105244, -0.007466], [34.58074578, 0.041225], [17.77781378, -0.113823], [9.38371315, -0.593972], [5.85185491, 3.090393], [3.39352009, -2.298941], [1.80084269, -1.325372], [0.88349057, 2.843762], [0.45376195, -1.264441], [0.18864625, -0.765375], [0.07756623, 0.899235], [0.03189313, -0.013792]], [1, [0.03189313, 1.0]], [1, [0.01311358, 1.0]], [2, [58.21685909, 0.000311], [24.96806153, -0.010386], [12.44413704, 0.126915], [5.48395408, 0.166806], [2.79137309, 0.262721], [1.34407118, 0.316542], [0.61230651, 0.280074], [0.27095461, 0.158069], [0.12811374, 0.049028], [0.05904405, 0.008369]], [2, [58.21685909, 0.000385], [24.96806153, 0.007345], [12.44413704, -0.129376], [5.48395408, -0.235095], [2.79137309, -0.387916], [1.34407118, -0.056421], [0.61230651, 0.34416], [0.27095461, 0.401431], [0.12811374, 0.201425], [0.05904405, 0.045061]], [2, [58.21685909, -0.002018], [24.96806153, 0.001015], [12.44413704, 0.127448], [5.48395408, 0.457991], [2.79137309, 0.230218], [1.34407118, -0.694956], [0.61230651, -0.373723], [0.27095461, 0.35233], [0.12811374, 0.420337], [0.05904405, 0.109669]], [2, [58.21685909, -5.7e-05], [24.96806153, -0.016008], [12.44413704, 0.319947], [5.48395408, 0.834009], [2.79137309, -1.01955], [1.34407118, -0.489125], [0.61230651, 0.956701], [0.27095461, 0.060729], [0.12811374, -0.501922], [0.05904405, -0.152504]], [2, [0.05904405, 1.0]], [2, [0.02721175, 1.0]], [3, [4.808419, 1.0]], [3, [1.639843, 1.0]], [3, [0.559243, 1.0]], [3, [0.19072114, 1.0]], [4, [4.604195, 1.0]], [4, [1.569312, 1.0]], [4, [0.53489048, 1.0]], [5, [3.877747, 1.0]], [5, [1.32170656, 1.0]]]}
ecp = {'Fe': [10, [[-1, [[], [[16.90683491, 16.0]], [[18.40258134, 26847.81569895], [6.30300831, -133.54888707], [18.42848726, -26765.4049232], [18.43432023, 1.00742417]], [[7.01300654, 270.50935856]]]], [0, [[], [], [[9.62463353, 20308.8999348], [9.1270955, -17595.21707731], [7.5416384, 1884.69012383], [12.70900949, -4483.50209856], [8.14863339, -1094.38597968], [16.27611739, 1032.95376659]], []]], [1, [[], [], [[11.36514719, -905.00711112], [14.56762424, 34640.9358259], [15.05861359, -42299.94223895], [17.41337089, 10633.68808757], [18.3746752, -5844.19723669], [17.04734437, 3803.80414779]], []]], [2, [[], [], [[10.13935738, -11031.18647055], [13.45796076, 16711.37502047], [10.97387824, 37989.95033676], [11.92919033, -41782.92514683], [17.7123012, 3812.58339812], [17.32108913, -5718.00854971]], []]]]]}
CPU time:         3.63


******** <class 'pyscf.scf.rohf.ROHF'> flags ********
method = ROHF
initial guess = minao
damping factor = 0
level shift factor = 1000.0
DIIS = <class 'pyscf.scf.diis.CDIIS'>
DIIS start cycle = 1
DIIS space = 8
SCF tol = 1e-09
SCF gradient tol = None
max. SCF cycles = 50
direct_scf = True
direct_scf_tol = 1e-13
chkfile to save SCF result = /rc_scratch/bamu3429/tmp38DWkQ
max_memory 4000 MB (current use 183 MB)
num. doubly occ = 6  num. singly occ = 4
Set gradient conv threshold to 3.16228e-05
init E= -123.038934335385
  HOMO = 499.857761850019  LUMO = 1000.0196049071
cycle= 1 E= -123.038934335385  delta_E= -3.55e-13  |g|= 1.37e-05  |ddm|= 2.84e-08
  HOMO = -0.142238150580005  LUMO = 0.0196049070628289
Extra cycle  E= -123.038934335432  delta_E= -4.69e-11  |g|= 4.88e-06  |ddm|= 1.73e-05
converged SCF energy = -123.038934335432
**** MO energy ****
                Roothaan           | alpha              | beta
MO #1   energy= -4.41336446247964  | -4.5998809623385   | -4.22684794992593  occ= 2
MO #2   energy= -2.79734408836671  | -3.07109231459593  | -2.52359586213748  occ= 2
MO #3   energy= -2.79072136919599  | -2.99314339124094  | -2.58829934715105  occ= 2
MO #4   energy= -2.79070800104288  | -2.99300934306969  | -2.58840665901607  occ= 2
MO #5   energy= -0.544207284283126 | -0.6090863983129   | -0.47932817025583  occ= 2
MO #6   energy= -0.261867282156947 | -0.2756946167484   | -0.248039852208127 occ= 2
MO #7   energy= -0.189689256696433 | -0.703759510423966 | 0.324380758902932  occ= 1
MO #8   energy= -0.17777453965965  | -0.692834385597169 | 0.337285717498857  occ= 1
MO #9   energy= -0.17771250224259  | -0.692781823979533 | 0.337356200089941  occ= 1
MO #10  energy= -0.142238150580005 | -0.661218538547258 | 0.376742219697772  occ= 1
MO #11  energy= 0.0196049070628289 | 0.0183660378819572 | 0.0208437762436961 occ= 0
MO #12  energy= 0.0208063184581437 | 0.0199917766950714 | 0.0216208602212146 occ= 0
MO #13  energy= 0.0208083578466987 | 0.0199945053261777 | 0.0216222103672159 occ= 0
MO #14  energy= 0.0233499603752713 | 0.0228506432892246 | 0.0238492782570969 occ= 0
MO #15  energy= 0.0642231226323577 | 0.0608321341897857 | 0.0676141110749299 occ= 0
MO #16  energy= 0.0670603577896737 | 0.0644540193373052 | 0.0696666962420393 occ= 0
MO #17  energy= 0.0670653741693635 | 0.0644605391864674 | 0.0696702091522557 occ= 0
MO #18  energy= 0.0819711666455904 | 0.0817519941436161 | 0.0821903390214478 occ= 0
MO #19  energy= 0.082058460050854  | 0.0818334401604562 | 0.0822834755717579 occ= 0
MO #20  energy= 0.0820590344824829 | 0.0818339948033724 | 0.0822840802483294 occ= 0
MO #21  energy= 0.0822908300430796 | 0.0822083407539593 | 0.0823733193114005 occ= 0
MO #22  energy= 0.0823307632259521 | 0.0820892741276213 | 0.0825722521658902 occ= 0
MO #23  energy= 0.187915516439641  | 0.182718841383538  | 0.193112196604289  occ= 0
MO #24  energy= 0.248934480708224  | 0.244830449681986  | 0.253038521396476  occ= 0
MO #25  energy= 0.249602574060079  | 0.245392452782807  | 0.2538126198446    occ= 0
MO #26  energy= 0.249606418178745  | 0.245395926591099  | 0.253817016095184  occ= 0
MO #27  energy= 0.250137299548603  | 0.248688038608118  | 0.251586560340536  occ= 0
MO #28  energy= 0.251653187689776  | 0.240625066002872  | 0.262681309376672  occ= 0
MO #29  energy= 0.251727048885567  | 0.247224960337336  | 0.256229140091923  occ= 0
MO #30  energy= 0.257685129954324  | 0.249001931516472  | 0.266368328392183  occ= 0
MO #31  energy= 0.25769591022282   | 0.24901708986934   | 0.266374730576295  occ= 0
MO #32  energy= 0.638649764706267  | 0.62677473928819   | 0.650524796288395  occ= 0
MO #33  energy= 0.717366741013229  | 0.712440843396005  | 0.722292638630447  occ= 0
MO #34  energy= 0.717822597047173  | 0.712998643535299  | 0.722646550559048  occ= 0
MO #35  energy= 0.717828396036225  | 0.713004299962142  | 0.722652492110311  occ= 0
MO #36  energy= 0.719114039968222  | 0.71543688511465   | 0.722791194821795  occ= 0
MO #37  energy= 0.719315350862472  | 0.714038492470436  | 0.724592209254506  occ= 0
MO #38  energy= 0.721507627146824  | 0.718119260232101  | 0.724895994061546  occ= 0
MO #39  energy= 0.721507817728434  | 0.718118440365303  | 0.72489719509156   occ= 0
MO #40  energy= 0.891233483535713  | 0.879105362643939  | 0.903361605481562  occ= 0
MO #41  energy= 0.89258123199674   | 0.853596451979486  | 0.931566077991553  occ= 0
MO #42  energy= 0.896210507767216  | 0.856453679129523  | 0.935967069919726  occ= 0
MO #43  energy= 0.896230311310117  | 0.856470585348446  | 0.935990416679036  occ= 0
MO #44  energy= 0.907861063959365  | 0.866127290894384  | 0.949594840846794  occ= 0
MO #45  energy= 1.3894651883272    | 1.34833539755198   | 1.43059497910241   occ= 0
MO #46  energy= 1.4078133405446    | 1.37604011329832   | 1.43958656779087   occ= 0
MO #47  energy= 1.40784591773219   | 1.37608855010263   | 1.43960328536173   occ= 0
MO #48  energy= 2.15750043727368   | 2.11127995521235   | 2.20372091933501   occ= 0
MO #49  energy= 2.15844422417948   | 2.11586342019988   | 2.20102502815908   occ= 0
MO #50  energy= 2.15846071330549   | 2.1158971937417    | 2.20102423286928   occ= 0
MO #51  energy= 2.1601766898487    | 2.12588120271772   | 2.19447217697968   occ= 0
MO #52  energy= 2.16496793460718   | 2.11616128644741   | 2.21377458276696   occ= 0
MO #53  energy= 2.16781780457824   | 2.13424482144233   | 2.20139078771414   occ= 0
MO #54  energy= 2.16781893926588   | 2.13425538089418   | 2.20138249763759   occ= 0
MO #55  energy= 2.50123523816291   | 2.4884235064488    | 2.51404696998114   occ= 0
MO #56  energy= 2.50194076161087   | 2.48900678495512   | 2.51487473878119   occ= 0
MO #57  energy= 2.50195107971971   | 2.48901330573403   | 2.51488885339137   occ= 0
MO #58  energy= 2.50334690329032   | 2.48972669873059   | 2.51696710786222   occ= 0
MO #59  energy= 2.50610510238949   | 2.49550460117333   | 2.51670560361263   occ= 0
MO #60  energy= 2.50953267685883   | 2.49888380472141   | 2.52018154986802   occ= 0
MO #61  energy= 2.50953784302142   | 2.49889477272174   | 2.52018091257311   occ= 0
MO #62  energy= 2.50990141676252   | 2.47257128399517   | 2.54723155102363   occ= 0
MO #63  energy= 2.51645583130228   | 2.50756478916428   | 2.52534687344056   occ= 0
MO #64  energy= 2.51670602628204   | 2.50626558314718   | 2.52714647098306   occ= 0
MO #65  energy= 3.52490982966473   | 3.43953037499425   | 3.61028931697141   occ= 0
MO #66  energy= 3.53111964209248   | 3.50116129096439   | 3.561077993174     occ= 0
MO #67  energy= 3.53223087361369   | 3.44573883596121   | 3.61872283801656   occ= 0
MO #68  energy= 3.53227135174816   | 3.44577488460321   | 3.61876794326004   occ= 0
MO #69  energy= 3.55580473133288   | 3.46684872678287   | 3.64476074415131   occ= 0
MO #70  energy= 5.24343456107016   | 5.18084717864931   | 5.30602194349101   occ= 0
MO #71  energy= 5.27819942813325   | 5.22987508805517   | 5.32652376821132   occ= 0
MO #72  energy= 5.27825901512382   | 5.22995831956549   | 5.32655971068216   occ= 0
MO #73  energy= 5.7284010631449    | 5.61770621168523   | 5.83909591460456   occ= 0
MO #74  energy= 5.73077840109035   | 5.6268247045522    | 5.83473209762848   occ= 0
MO #75  energy= 5.73081174277465   | 5.6268857238934    | 5.83473776165591   occ= 0
MO #76  energy= 5.73516696585814   | 5.65277471202557   | 5.8175592196907    occ= 0
MO #77  energy= 5.74306308482674   | 5.62648461237362   | 5.85964155727988   occ= 0
MO #78  energy= 5.75051349381566   | 5.67234432494227   | 5.82868266268906   occ= 0
MO #79  energy= 5.75051566034903   | 5.67235608730639   | 5.82867523339169   occ= 0
MO #80  energy= 7.4514110914835    | 7.42608926329221   | 7.47673291967478   occ= 0
MO #81  energy= 7.45193693265337   | 7.42624127201783   | 7.47763259328891   occ= 0
MO #82  energy= 7.45194504210103   | 7.42624224594948   | 7.47764783825258   occ= 0
MO #83  energy= 7.45266588756848   | 7.4262982945052    | 7.47903348063177   occ= 0
MO #84  energy= 7.46122749508065   | 7.43994498234955   | 7.48251000781178   occ= 0
MO #85  energy= 7.46460725615911   | 7.44312843966791   | 7.48608607265033   occ= 0
MO #86  energy= 7.46462943328469   | 7.44316092286813   | 7.48609794370128   occ= 0
MO #87  energy= 7.47290324898615   | 7.45212918377028   | 7.49367731420206   occ= 0
MO #88  energy= 7.47379015897129   | 7.45388881859776   | 7.4936914993448    occ= 0
MO #89  energy= 7.48696228745119   | 7.46966131847204   | 7.50426325643032   occ= 0
MO #90  energy= 7.4869628760074    | 7.46966254248197   | 7.50426320953282   occ= 0
MO #91  energy= 7.58112328709931   | 7.52709276283723   | 7.63515381321599   occ= 0
MO #92  energy= 7.58273709939689   | 7.52822056057772   | 7.6372536401387    occ= 0
MO #93  energy= 7.58275912226498   | 7.5282284116488    | 7.63728983435568   occ= 0
MO #94  energy= 7.58589428545316   | 7.52883092721334   | 7.64295764424676   occ= 0
MO #95  energy= 7.59294492852634   | 7.54821788672352   | 7.63767197035084   occ= 0
MO #96  energy= 7.60095028693074   | 7.55640417272154   | 7.64549640280652   occ= 0
MO #97  energy= 7.60096288351018   | 7.55643962848762   | 7.64548613820909   occ= 0
MO #98  energy= 7.61750450037822   | 7.58053778043056   | 7.65447122032162   occ= 0
MO #99  energy= 7.61768885202894   | 7.58137048105859   | 7.65400722384395   occ= 0
MO #100 energy= 10.2629554954162   | 10.2008808845425   | 10.3250301065879   occ= 0
MO #101 energy= 10.5916562274066   | 10.5194554496593   | 10.6638570057466   occ= 0
MO #102 energy= 10.5977318355313   | 10.5230974349261   | 10.6723662360486   occ= 0
MO #103 energy= 10.597777925711    | 10.5231401062331   | 10.6724157474381   occ= 0
MO #104 energy= 10.6164507146903   | 10.5859559828263   | 10.6469454465578   occ= 0
MO #105 energy= 10.624539889969    | 10.5481179725729   | 10.7009618093556   occ= 0
MO #106 energy= 15.6385765272735   | 15.5345421591916   | 15.7426108953553   occ= 0
MO #107 energy= 15.642784268749    | 15.5403158148573   | 15.7452527226407   occ= 0
MO #108 energy= 15.6428275577227   | 15.5403552178185   | 15.7452998976269   occ= 0
MO #109 energy= 15.6553263183347   | 15.5456015400373   | 15.7650510966321   occ= 0
MO #110 energy= 15.6557849814802   | 15.5771746039372   | 15.7343953590231   occ= 0
MO #111 energy= 15.6768914062489   | 15.6069799609578   | 15.7468028515399   occ= 0
MO #112 energy= 15.6768916155025   | 15.6070008025354   | 15.7467824284696   occ= 0
MO #113 energy= 15.8557820617502   | 15.7885427241989   | 15.9230213993015   occ= 0
MO #114 energy= 15.8976604128349   | 15.845552579275    | 15.9497682463948   occ= 0
MO #115 energy= 15.8977323152981   | 15.8456503864235   | 15.9498142441727   occ= 0
MO #116 energy= 21.1061661584108   | 21.0284091471676   | 21.1839231713661   occ= 0
MO #117 energy= 21.1083902841552   | 21.0298446067431   | 21.1869359627397   occ= 0
MO #118 energy= 21.1084189704724   | 21.0298537613197   | 21.1869841815642   occ= 0
MO #119 energy= 21.1125702862387   | 21.0306352970472   | 21.1945052759809   occ= 0
MO #120 energy= 21.1239347561442   | 21.0594707648833   | 21.1883987474097   occ= 0
MO #121 energy= 21.1352838015469   | 21.0712659869024   | 21.1993016185073   occ= 0
MO #122 energy= 21.135303847215    | 21.0713178527715   | 21.1992898405961   occ= 0
MO #123 energy= 21.1595372264108   | 21.1062340852448   | 21.2128403675726   occ= 0
MO #124 energy= 21.1599029039645   | 21.1075948674047   | 21.2122109410436   occ= 0
MO #125 energy= 22.5409341165367   | 22.4861978100946   | 22.5956704229788   occ= 0
MO #126 energy= 22.541688988232    | 22.4861780098805   | 22.5971999665834   occ= 0
MO #127 energy= 22.5416996081728   | 22.4861753450674   | 22.5972238712782   occ= 0
MO #128 energy= 22.5426966433722   | 22.4859212799134   | 22.5994720068311   occ= 0
MO #129 energy= 22.5584663499808   | 22.5123746477131   | 22.6045580522486   occ= 0
MO #130 energy= 22.5640132040413   | 22.5177007506571   | 22.6103256574254   occ= 0
MO #131 energy= 22.5640515433027   | 22.5177589724603   | 22.6103441141451   occ= 0
MO #132 energy= 22.5779687989839   | 22.533262359013    | 22.6226752389548   occ= 0
MO #133 energy= 22.5797073118902   | 22.5368811869327   | 22.6225334368477   occ= 0
MO #134 energy= 22.6023147897804   | 22.565166907668    | 22.6394626718929   occ= 0
MO #135 energy= 22.6023159264835   | 22.5651694011484   | 22.6394624518186   occ= 0
 ** Mulliken pop on meta-lowdin orthogonal AOs  **
 ** Mulliken pop  **
pop of  0Fe 3s        1.99996
pop of  0Fe 4s        1.99793
pop of  0Fe 5s        0.00089
pop of  0Fe 6s        0.00029
pop of  0Fe 7s        0.00001
pop of  0Fe 8s        0.00020
pop of  0Fe 9s        0.00018
pop of  0Fe 3px       1.99986
pop of  0Fe 3py       1.99986
pop of  0Fe 3pz       1.99984
pop of  0Fe 4px       0.00004
pop of  0Fe 4py       0.00004
pop of  0Fe 4pz       0.00009
pop of  0Fe 5px       0.00001
pop of  0Fe 5py       0.00001
pop of  0Fe 5pz       0.00002
pop of  0Fe 6px       0.00000
pop of  0Fe 6py       0.00001
pop of  0Fe 6pz       0.00001
pop of  0Fe 7px       0.00000
pop of  0Fe 7py       0.00000
pop of  0Fe 7pz       0.00000
pop of  0Fe 8px       0.00000
pop of  0Fe 8py       0.00000
pop of  0Fe 8pz       0.00000
pop of  0Fe 9px       0.00000
pop of  0Fe 9py       0.00000
pop of  0Fe 9pz       0.00000
pop of  0Fe 3dxy      1.94741
pop of  0Fe 3dyz      1.00115
pop of  0Fe 3dz^2     0.99751
pop of  0Fe 3dxz      1.04488
pop of  0Fe 3dx2-y2    0.99786
pop of  0Fe 4dxy      0.00012
pop of  0Fe 4dyz      0.00229
pop of  0Fe 4dz^2     0.00269
pop of  0Fe 4dxz      0.00216
pop of  0Fe 4dx2-y2    0.00162
pop of  0Fe 5dxy      0.00002
pop of  0Fe 5dyz      0.00029
pop of  0Fe 5dz^2     0.00034
pop of  0Fe 5dxz      0.00027
pop of  0Fe 5dx2-y2    0.00021
pop of  0Fe 6dxy      0.00001
pop of  0Fe 6dyz      0.00001
pop of  0Fe 6dz^2     0.00001
pop of  0Fe 6dxz      0.00001
pop of  0Fe 6dx2-y2    0.00001
pop of  0Fe 7dxy      0.00003
pop of  0Fe 7dyz      0.00037
pop of  0Fe 7dz^2     0.00045
pop of  0Fe 7dxz      0.00034
pop of  0Fe 7dx2-y2    0.00028
pop of  0Fe 8dxy      0.00000
pop of  0Fe 8dyz      0.00003
pop of  0Fe 8dz^2     0.00003
pop of  0Fe 8dxz      0.00002
pop of  0Fe 8dx2-y2    0.00002
pop of  0Fe 4fy^3     0.00001
pop of  0Fe 4fxyz     0.00000
pop of  0Fe 4fyz^2    0.00000
pop of  0Fe 4fz^3     0.00001
pop of  0Fe 4fxz^2    0.00000
pop of  0Fe 4fzx^2    0.00000
pop of  0Fe 4fx^3     0.00001
pop of  0Fe 5fy^3     0.00003
pop of  0Fe 5fxyz     0.00000
pop of  0Fe 5fyz^2    0.00001
pop of  0Fe 5fz^3     0.00002
pop of  0Fe 5fxz^2    0.00001
pop of  0Fe 5fzx^2    0.00001
pop of  0Fe 5fx^3     0.00003
pop of  0Fe 6fy^3     0.00002
pop of  0Fe 6fxyz     0.00000
pop of  0Fe 6fyz^2    0.00000
pop of  0Fe 6fz^3     0.00000
pop of  0Fe 6fxz^2    0.00000
pop of  0Fe 6fzx^2    0.00000
pop of  0Fe 6fx^3     0.00002
pop of  0Fe 7fy^3     0.00000
pop of  0Fe 7fxyz     0.00000
pop of  0Fe 7fyz^2    0.00000
pop of  0Fe 7fz^3     0.00000
pop of  0Fe 7fxz^2    0.00000
pop of  0Fe 7fzx^2    0.00000
pop of  0Fe 7fx^3     0.00000
pop of  0Fe 5g-4      0.00000
pop of  0Fe 5g-3      0.00000
pop of  0Fe 5g-2      0.00000
pop of  0Fe 5g-1      0.00000
pop of  0Fe 5g 0      0.00000
pop of  0Fe 5g 1      0.00000
pop of  0Fe 5g 2      0.00000
pop of  0Fe 5g 3      0.00000
pop of  0Fe 5g 4      0.00000
pop of  0Fe 6g-4      0.00000
pop of  0Fe 6g-3      0.00000
pop of  0Fe 6g-2      0.00001
pop of  0Fe 6g-1      0.00001
pop of  0Fe 6g 0      0.00001
pop of  0Fe 6g 1      0.00001
pop of  0Fe 6g 2      0.00000
pop of  0Fe 6g 3      0.00000
pop of  0Fe 6g 4      0.00000
pop of  0Fe 7g-4      0.00000
pop of  0Fe 7g-3      0.00000
pop of  0Fe 7g-2      0.00000
pop of  0Fe 7g-1      0.00001
pop of  0Fe 7g 0      0.00001
pop of  0Fe 7g 1      0.00000
pop of  0Fe 7g 2      0.00000
pop of  0Fe 7g 3      0.00000
pop of  0Fe 7g 4      0.00000
pop of  0Fe 6h-5      0.00000
pop of  0Fe 6h-4      0.00000
pop of  0Fe 6h-3      0.00000
pop of  0Fe 6h-2      0.00000
pop of  0Fe 6h-1      0.00000
pop of  0Fe 6h 0      0.00000
pop of  0Fe 6h 1      0.00000
pop of  0Fe 6h 2      0.00000
pop of  0Fe 6h 3      0.00000
pop of  0Fe 6h 4      0.00000
pop of  0Fe 6h 5      0.00000
pop of  0Fe 7h-5      0.00000
pop of  0Fe 7h-4      0.00000
pop of  0Fe 7h-3      0.00000
pop of  0Fe 7h-2      0.00000
pop of  0Fe 7h-1      0.00000
pop of  0Fe 7h 0      0.00000
pop of  0Fe 7h 1      0.00000
pop of  0Fe 7h 2      0.00000
pop of  0Fe 7h 3      0.00000
pop of  0Fe 7h 4      0.00000
pop of  0Fe 7h 5      0.00000
 ** Mulliken atomic charges  **
charge of  0Fe =      0.00000

******** <class 'pyscf.mcscf.mc1step.CASSCF'> flags ********
CAS (6e+2e, 6o), ncore = 4, nvir = 125
max_cycle_macro = 50
max_cycle_micro = 4
conv_tol = 1e-07
conv_tol_grad = None
orbital rotation max_stepsize = 0.02
augmented hessian ah_max_cycle = 30
augmented hessian ah_conv_tol = 1e-12
augmented hessian ah_linear dependence = 1e-14
augmented hessian ah_level shift = 0
augmented hessian ah_start_tol = 2.5
augmented hessian ah_start_cycle = 3
augmented hessian ah_grad_trust_region = 3
kf_trust_region = 3
kf_interval = 4
ci_response_space = 4
ci_grad_trust_region = 3
with_dep4 0
natorb = False
canonicalization = True
sorting_mo_energy = False
chkfile = ./scratch/24428/tmp7lQ8Hj
max_memory 4000 MB (current use 837 MB)
internal_rotation = False

******** SHCI flags ********
executable             = /home/bamu3429/softwares/dice/Dice
mpiprefix              = srun -n20
scratchDirectory       = ./scratch/24428
integralFile           = ./FCIDUMP
configFile             = ./input.dat
outputFile             = ./output.dat
maxIter                = 6
sweep_iter             = []
sweep_epsilon          = []
nPTiter                = 0
Stochastic             = True
fullrestart            = False
restart                = False
num_thrds              = 12
memory                 = None

CASCI E = -123.038934335432  S^2 = 6.0000000
Set conv_tol_grad to 0.000316228
macro iter 1 (1 JK  1 micro), CASSCF E = -123.038934335432  dE = 0  S^2 = 6.0000000
               |grad[o]|=4.61e-06  |grad[c]|= None  |ddm|=    0
1-step CASSCF converged in 1 macro (1 JK 1 micro) steps
CASSCF canonicalization
CASSCF energy = -123.038934335432


--------------------------------------------------
                 ICMPSPT CALCULATION              
--------------------------------------------------

Perturbation type: MRLCC
With fully internally contracted scheme
With third order correction

Preparing necessary RDMs
......production of RDMs took       2.32 sec
Reading binary 4RDM from DICE
......reading the RDM took          1.04 sec

(GOOD) Trace 4RDM:   1680.0 =    8*    7*    6*    5
(GOOD) Trace 3RDM:    336.0 =    8*    7*    6
(GOOD) Trace 2RDM:     56.0 =    8*    7
(GOOD) Trace 1RDM:      8.0 =    8

Producing the integrals
......production of INT took     247.38 sec

Energy_core = -101.62985904
Energy      = -123.03893434

WARNING: Have to use natural orbitals from CAASCF
         offdiagonal elements:    1.03969269

Basic ingredients written to int/
......savings of INGREDIENTS took      70.48 sec

Second-order:
perturber CCVV --        -0.113932383
perturber CCAV --        -0.038208472
perturber ACVV --        -0.218329400
perturber CCAA --        -0.017728660
perturber AAVV --        -0.209060098
perturber CAAV --        -0.111935384
perturber AAAV --        -0.008222040
perturber AAAC --        -0.000000000
Total:                   -0.717416439

Third-order:             -0.000059932

Total PT       --        -0.717476370

